version 3
run SimulationTime-392-20240108-13:24:04-15092
attr configname SimulationTime
attr datetime 20240108-13:24:04
attr datetimef 20240108-132404
attr experiment SimulationTime
attr inifile omnetpp.ini
attr iterationvars ""
attr iterationvarsd ""
attr iterationvarsf ""
attr measurement ""
attr network System
attr processid 15092
attr repetition 392
attr replication #392
attr resultdir results
attr runnumber 392
attr seedset 392
config **.cpu.rate 1000
config **.hd.rateProcessing 250
config **.webServer.web_server_rate 100
config **.p1 0.35
config **.p2 0.40
config network System
config num-rngs 4
config **.cpu.rng-0 0
config **.cpu.rng-1 1
config **.hd.rng-0 2
config **.webServer.rng-0 3
config repeat 500
config seed-set 392
config sim-time-limit 10000s
config **.client.numClients 40

vector 0 System.server.cpu requestCounterStat:vector ETV
attr recordingmode vector
attr source requestCounter
vector 1 System.server.hd utilizationHdStat:vector ETV
attr recordingmode vector
attr source utilizationHd
vector 2 System.server.cpu utilizationCpuStat:vector ETV
attr recordingmode vector
attr source utilizationCpu
vector 3 System.webServer utilizationWsStat:vector ETV
attr recordingmode vector
attr source utilizationWs
0	1813	1	180
0	3413	2	165
0	5207	3	171
0	6869	4	171
0	8002	5	92
0	9571	6	120
0	10977	7	129
0	12269	8	119
0	13669	9	117
0	15125	10	144
0	16591	11	129
0	18067	12	147
0	19240	13	118
0	20689	14	146
0	22591	15	167
0	24143	16	143
0	25474	17	128
0	26913	18	140
0	28334	19	118
0	29750	20	148
0	31116	21	123
0	32626	22	147
0	34168	23	133
0	35385	24	108
0	36741	25	131
0	38146	26	112
0	39390	27	133
0	40781	28	128
0	42256	29	152
0	43585	30	127
0	45096	31	152
0	46646	32	161
0	47909	33	110
0	49357	34	153
0	50559	35	123
0	51846	36	126
0	52938	37	105
0	54203	38	104
0	55282	39	98
0	56924	40	146
0	58485	41	148
0	60230	42	156
0	61629	43	116
0	63167	44	147
0	64551	45	133
0	66084	46	156
0	67654	47	169
0	68974	48	97
0	70189	49	112
0	71708	50	149
0	73173	51	142
0	74543	52	129
0	76164	53	176
0	77551	54	136
0	79033	55	139
0	80611	56	175
0	81855	57	127
0	83365	58	133
0	84783	59	131
0	86151	60	136
0	87202	61	86
0	88522	62	117
0	89932	63	115
0	91841	64	192
0	93439	65	163
0	94930	66	136
0	96123	67	126
0	97415	68	121
0	98678	69	118
0	100357	70	157
0	101764	71	134
0	103182	72	151
0	104686	73	151
0	106386	74	175
0	107818	75	137
0	109094	76	113
0	110599	77	140
0	112008	78	142
0	113415	79	140
0	114578	80	105
0	116144	81	159
0	117649	82	148
0	119414	83	168
0	120859	84	124
0	122217	85	129
0	123657	86	147
0	125251	87	147
0	126790	88	154
0	128471	89	144
0	130052	90	147
0	131678	91	163
0	133456	92	193
0	135119	93	160
0	136628	94	166
0	137915	95	112
0	139464	96	144
0	140803	97	130
0	142240	98	128
0	143679	99	150
0	145014	100	127
0	146311	101	130
0	148221	102	171
0	149658	103	152
0	150711	104	92
0	152008	105	128
0	153666	106	183
0	155359	107	168
0	156661	108	125
0	158318	109	140
0	159768	110	136
0	161351	111	164
0	162997	112	133
0	164422	113	132
0	165845	114	120
0	167391	115	149
0	168795	116	133
0	170226	117	138
0	171672	118	135
0	173067	119	130
0	174714	120	153
0	176076	121	125
0	177081	122	80
0	178800	123	178
0	180146	124	117
0	181478	125	117
0	182836	126	117
0	184375	127	140
0	185728	128	118
0	186939	129	108
0	188280	130	137
0	189361	131	98
0	190917	132	141
0	192386	133	136
0	193850	134	141
0	195311	135	148
0	196596	136	120
0	197759	137	110
0	199226	138	146
0	200889	139	174
0	202587	140	168
0	204234	141	164
0	205987	142	174
0	207538	143	134
0	208951	144	124
0	210278	145	108
0	211399	146	108
0	212619	147	125
0	213964	148	144
0	215370	149	139
0	216949	150	173
0	218132	151	120
0	219385	152	114
0	220995	153	165
0	222389	154	139
0	223840	155	138
0	225240	156	133
0	226750	157	157
0	228203	158	142
0	229731	159	151
0	231261	160	162
0	232673	161	125
0	234140	162	132
0	235711	163	156
0	236853	164	115
0	238458	165	134
0	239981	166	144
0	241475	167	139
0	243134	168	162
0	244397	169	124
0	246156	170	165
0	247605	171	134
0	249389	172	187
0	250590	173	106
0	252041	174	134
0	253448	175	136
0	254960	176	141
0	256325	177	134
0	257846	178	152
0	259415	179	152
0	260598	180	103
0	261974	181	139
0	263369	182	122
0	264800	183	130
0	266340	184	169
0	267880	185	149
0	269500	186	177
0	271106	187	159
0	272753	188	158
0	274345	189	145
0	275770	190	143
0	277030	191	133
0	278682	192	163
0	280176	193	123
0	281448	194	127
0	282887	195	122
0	284142	196	126
0	285374	197	115
0	286730	198	127
0	288359	199	152
0	289819	200	144
0	291617	201	171
0	293210	202	150
0	294584	203	137
0	295962	204	131
0	297647	205	140
0	299298	206	158
0	300961	207	146
0	302216	208	114
0	303681	209	144
0	304840	210	111
0	306177	211	134
0	307481	212	129
0	308915	213	109
0	310437	214	141
0	311777	215	119
0	313383	216	147
0	314983	217	163
0	316476	218	144
0	317943	219	138
0	319244	220	111
0	320559	221	130
0	322178	222	160
0	323650	223	137
0	324975	224	118
0	326294	225	114
0	327805	226	142
0	329460	227	164
0	331274	228	193
0	332690	229	129
0	333960	230	122
0	335870	231	193
0	337098	232	115
0	338672	233	151
0	340275	234	166
0	341408	235	94
0	343001	236	174
0	344532	237	148
0	346375	238	152
0	347751	239	125
0	349431	240	160
0	350606	241	98
0	352430	242	177
0	354203	243	150
0	355746	244	150
0	357109	245	144
0	358752	246	168
0	360682	247	189
0	362061	248	108
0	363680	249	154
0	365415	250	185
0	366891	251	131
0	368444	252	156
0	369829	253	128
0	371092	254	128
0	372621	255	136
0	373869	256	115
0	375318	257	152
0	376671	258	120
0	378262	259	158
0	379582	260	128
0	381239	261	160
0	382748	262	138
0	384364	263	143
0	385792	264	125
0	387402	265	149
0	389236	266	177
0	390787	267	162
0	392374	268	166
0	393882	269	149
0	395437	270	161
0	396721	271	105
0	398220	272	150
0	399568	273	125
0	400988	274	135
0	402646	275	165
0	403984	276	117
0	405382	277	141
0	407236	278	189
0	408509	279	114
0	409742	280	111
0	411193	281	146
0	412698	282	128
0	414050	283	129
0	415525	284	154
0	417209	285	165
0	418947	286	171
0	420489	287	153
0	422010	288	150
0	423495	289	144
0	424806	290	133
0	426254	291	123
0	427669	292	138
0	428893	293	115
0	430717	294	165
0	432378	295	172
0	433519	296	106
0	434762	297	124
0	436350	298	153
0	437626	299	139
0	439454	300	182
0	440855	301	128
0	442226	302	124
0	443824	303	161
0	445081	304	128
0	446454	305	140
0	447886	306	149
0	449441	307	142
0	450727	308	123
0	452005	309	109
0	453497	310	144
0	455246	311	168
0	456852	312	153
0	458235	313	120
0	459667	314	155
0	460838	315	114
0	462298	316	135
0	464099	317	178
0	465572	318	132
0	466963	319	130
0	468297	320	118
0	469949	321	173
0	471491	322	151
0	472881	323	131
0	474379	324	167
0	476045	325	151
0	477276	326	110
0	478950	327	151
0	480980	328	203
0	482013	329	82
0	483801	330	162
0	485213	331	121
0	486668	332	118
0	488197	333	164
0	489705	334	149
0	491104	335	138
0	492778	336	171
0	494069	337	134
0	495377	338	109
0	496796	339	144
0	498056	340	106
0	499756	341	169
0	501304	342	145
0	502590	343	113
0	504357	344	168
0	505990	345	156
0	507587	346	160
0	508907	347	125
0	510132	348	100
0	511822	349	185
0	513490	350	164
0	515091	351	170
0	516513	352	131
0	518089	353	153
0	519459	354	133
0	520982	355	140
0	522338	356	125
0	523785	357	138
0	525294	358	144
0	526640	359	133
0	528133	360	151
0	529407	361	121
0	530952	362	168
0	532121	363	92
0	533517	364	133
0	534631	365	103
0	536259	366	165
0	537392	367	96
0	538532	368	101
0	539843	369	114
0	541107	370	120
0	542459	371	137
0	543908	372	122
0	545031	373	106
0	546098	374	100
0	547456	375	127
0	548800	376	125
0	550259	377	130
0	551935	378	155
0	553261	379	129
0	554444	380	101
0	555857	381	136
0	557361	382	157
0	558645	383	117
0	560042	384	132
0	561230	385	109
0	562676	386	127
0	564129	387	156
0	565736	388	142
0	567030	389	127
0	568457	390	129
0	570282	391	182
0	571622	392	139
0	573288	393	147
0	574769	394	138
0	576025	395	111
0	577276	396	122
0	578687	397	116
0	580198	398	150
0	581731	399	134
0	583081	400	114
0	584561	401	137
0	585878	402	126
0	587470	403	159
0	589085	404	140
0	590781	405	165
0	592493	406	177
0	593893	407	121
0	595317	408	143
0	596894	409	134
0	598531	410	157
0	600076	411	136
0	601834	412	163
0	603318	413	145
0	604862	414	153
0	606188	415	149
0	607514	416	133
0	608838	417	137
0	610407	418	136
0	612007	419	149
0	613475	420	164
0	615011	421	157
0	616826	422	162
0	618204	423	119
0	619942	424	171
0	621572	425	153
0	622998	426	129
0	624503	427	158
0	626152	428	162
0	628009	429	192
0	629786	430	165
0	631250	431	135
0	632945	432	158
0	634314	433	152
0	635643	434	122
0	637141	435	135
0	638442	436	114
0	639878	437	133
0	641305	438	144
0	642862	439	166
0	644259	440	135
0	645740	441	134
0	646941	442	110
0	648377	443	121
0	650004	444	164
0	651310	445	123
0	652718	446	141
0	653989	447	130
0	655584	448	158
0	657232	449	159
0	658500	450	124
0	659741	451	116
0	661372	452	158
0	663083	453	166
0	664647	454	153
0	666215	455	155
0	667931	456	167
0	669272	457	132
0	670581	458	120
0	671984	459	138
0	673201	460	107
0	674615	461	135
0	675847	462	123
0	677608	463	168
0	678784	464	107
0	680075	465	110
0	681416	466	120
0	683116	467	173
0	684512	468	133
0	686267	469	158
0	687601	470	138
0	689334	471	164
0	690596	472	131
0	692388	473	179
0	693863	474	140
0	695234	475	150
0	696870	476	171
0	698839	477	186
0	700067	478	121
0	701683	479	165
0	703172	480	151
0	704340	481	119
0	705513	482	106
0	706968	483	124
0	708522	484	145
0	709882	485	121
0	711249	486	114
0	712693	487	133
0	714025	488	125
0	715561	489	147
0	717149	490	158
0	718558	491	128
0	720119	492	148
0	721396	493	130
0	722903	494	148
0	724345	495	155
0	725709	496	129
0	727248	497	154
0	728512	498	111
0	730030	499	147
0	731877	500	183
0	733304	501	140
0	734934	502	145
0	736538	503	149
0	737801	504	110
0	739463	505	181
0	741055	506	143
0	742133	507	93
0	743329	508	119
0	744628	509	134
0	745957	510	123
0	747540	511	154
0	748962	512	129
0	750599	513	154
0	751702	514	102
0	753273	515	158
0	754917	516	149
0	756562	517	154
0	758235	518	162
0	759712	519	148
0	761041	520	123
0	762665	521	145
0	764114	522	120
0	765327	523	108
0	766931	524	157
0	768508	525	158
0	769635	526	118
0	770878	527	132
0	772151	528	112
0	773814	529	174
0	775177	530	121
0	776479	531	127
0	777917	532	135
0	779326	533	140
0	780726	534	141
0	782196	535	121
0	783502	536	133
0	784614	537	93
0	786517	538	198
0	787771	539	123
0	789267	540	144
0	790912	541	186
0	792381	542	150
0	793885	543	163
0	795145	544	123
0	796589	545	123
0	798152	546	152
0	799737	547	164
0	800998	548	116
0	802257	549	126
0	803486	550	127
0	804882	551	125
0	806579	552	152
0	807894	553	136
0	809090	554	123
0	810474	555	133
0	811887	556	126
0	813189	557	133
0	814461	558	137
0	815859	559	129
0	817060	560	105
0	818493	561	140
0	819987	562	133
0	821497	563	151
0	823103	564	149
0	824543	565	141
0	825761	566	127
0	827164	567	118
0	829013	568	178
0	830839	569	189
0	832420	570	145
0	834017	571	160
0	835657	572	149
0	837075	573	141
0	838663	574	161
0	840221	575	157
0	841690	576	134
0	843465	577	156
0	844598	578	106
0	846229	579	158
0	847493	580	120
0	849076	581	156
0	850478	582	135
0	851816	583	133
0	853331	584	150
0	854932	585	140
0	856099	586	108
0	857819	587	171
0	859184	588	142
0	860746	589	145
0	862145	590	121
0	863715	591	151
0	865111	592	137
0	866233	593	95
0	867661	594	129
0	869097	595	129
0	870328	596	96
0	871747	597	152
0	872981	598	119
0	874290	599	136
0	875617	600	115
0	877282	601	166
0	878664	602	149
0	880153	603	142
0	881888	604	162
0	883486	605	159
0	884745	606	106
0	886191	607	129
0	888065	608	197
0	889712	609	152
0	891244	610	148
0	893035	611	180
0	894478	612	130
0	896043	613	156
0	897553	614	131
0	899019	615	151
0	900115	616	97
0	901405	617	131
0	902812	618	132
0	904375	619	144
0	905816	620	133
0	907268	621	135
0	909215	622	182
0	910629	623	143
0	911988	624	132
0	913627	625	148
0	915249	626	135
0	916648	627	130
0	917740	628	103
0	919467	629	162
0	920733	630	112
0	922132	631	138
0	923531	632	118
0	925003	633	161
0	926267	634	107
0	927845	635	145
0	929113	636	117
0	930619	637	167
0	932498	638	190
0	933865	639	126
0	935174	640	119
0	936756	641	167
0	938221	642	150
0	939492	643	110
0	940961	644	144
0	942628	645	152
0	943804	646	113
0	945646	647	175
0	947474	648	185
0	948829	649	136
0	950295	650	152
0	951758	651	128
0	952774	652	95
0	954199	653	132
0	955560	654	144
0	956937	655	138
0	958561	656	161
0	960122	657	158
0	961391	658	128
0	962809	659	121
0	963946	660	109
0	965614	661	153
0	967338	662	189
0	968814	663	143
0	970225	664	142
0	971869	665	151
0	973514	666	144
0	974806	667	111
0	975907	668	90
0	977301	669	139
0	978464	670	109
0	979921	671	138
0	981531	672	137
0	983202	673	174
0	984971	674	162
0	986212	675	118
0	987959	676	184
0	989214	677	124
0	990260	678	99
0	991464	679	91
0	993301	680	169
0	995004	681	142
0	996481	682	148
0	998086	683	180
0	999515	684	124
0	1000884	685	140
0	1002524	686	157
0	1004078	687	151
0	1005710	688	177
0	1007273	689	138
0	1008909	690	160
0	1010131	691	123
0	1011727	692	147
0	1013356	693	154
0	1014713	694	132
0	1015822	695	104
0	1016970	696	119
0	1018395	697	140
0	1019771	698	135
0	1021148	699	118
0	1022627	700	147
0	1024287	701	145
0	1025763	702	141
0	1027351	703	153
0	1028816	704	144
0	1030072	705	127
0	1031449	706	134
0	1032674	707	102
0	1034200	708	151
0	1035762	709	165
0	1036982	710	112
0	1038466	711	145
0	1040356	712	183
0	1041685	713	128
0	1042933	714	121
0	1044274	715	116
0	1045737	716	136
0	1047099	717	129
0	1048564	718	146
0	1049758	719	121
0	1051365	720	147
0	1052992	721	172
0	1054375	722	134
0	1056005	723	163
0	1057589	724	165
0	1059113	725	157
0	1060506	726	128
0	1061964	727	145
0	1063660	728	167
0	1065188	729	177
0	1066400	730	126
0	1068112	731	155
0	1069581	732	144
0	1071063	733	159
0	1072774	734	174
0	1074117	735	132
0	1075923	736	177
0	1077303	737	145
0	1078671	738	131
0	1080276	739	158
0	1081873	740	153
0	1083212	741	116
0	1084663	742	128
0	1086129	743	133
0	1087433	744	123
0	1088771	745	129
0	1090480	746	170
0	1091797	747	114
0	1093226	748	146
0	1094864	749	153
0	1096339	750	151
0	1097872	751	138
0	1099349	752	148
0	1100788	753	122
0	1102246	754	135
0	1103615	755	158
0	1105251	756	157
0	1106222	757	90
0	1107630	758	143
0	1108944	759	113
0	1110592	760	168
0	1112193	761	178
0	1113709	762	149
0	1115098	763	136
0	1116565	764	152
0	1118056	765	136
0	1119268	766	109
0	1120781	767	138
0	1122209	768	139
0	1123452	769	118
0	1124806	770	138
0	1126300	771	143
0	1127430	772	101
0	1128829	773	116
0	1130073	774	111
0	1131372	775	124
0	1132920	776	153
0	1134330	777	111
0	1135877	778	146
0	1137411	779	139
0	1138934	780	149
0	1140262	781	137
0	1141796	782	123
0	1143260	783	133
0	1144473	784	116
0	1145835	785	147
0	1147629	786	203
0	1149246	787	172
0	1150687	788	136
0	1151892	789	98
0	1153076	790	102
0	1154751	791	170
0	1156385	792	163
0	1158041	793	149
0	1159529	794	139
0	1161088	795	134
0	1162614	796	145
0	1163755	797	114
0	1164955	798	107
0	1166903	799	189
0	1168177	800	118
0	1169633	801	153
0	1171099	802	151
0	1172371	803	111
0	1174028	804	156
0	1175391	805	156
0	1177138	806	178
0	1178646	807	165
0	1180067	808	144
0	1181372	809	124
0	1182789	810	141
0	1184296	811	134
0	1185854	812	129
0	1187376	813	147
0	1188743	814	122
0	1190151	815	119
0	1191604	816	136
0	1192890	817	113
0	1194243	818	116
0	1195611	819	129
0	1196916	820	123
0	1198426	821	151
0	1199832	822	119
0	1201547	823	170
0	1202927	824	113
0	1204530	825	164
0	1205970	826	147
0	1207888	827	199
0	1209389	828	148
0	1210814	829	136
0	1212425	830	145
0	1213571	831	95
0	1215233	832	175
0	1216874	833	168
0	1218428	834	151
0	1219698	835	117
0	1221273	836	156
0	1222740	837	154
0	1224172	838	145
0	1225833	839	156
0	1227147	840	142
0	1228664	841	144
0	1230427	842	178
0	1231696	843	108
0	1233021	844	122
0	1234664	845	176
0	1236002	846	123
0	1237352	847	105
0	1238794	848	165
0	1240092	849	115
0	1241772	850	174
0	1243028	851	119
0	1244225	852	110
0	1245556	853	112
0	1246971	854	154
0	1248681	855	161
0	1249750	856	126
0	1251050	857	117
0	1252593	858	130
0	1253978	859	142
0	1255664	860	162
0	1257110	861	137
0	1258292	862	103
0	1259707	863	150
0	1261030	864	126
0	1262491	865	144
0	1264168	866	156
0	1265496	867	125
0	1267000	868	147
0	1268100	869	95
0	1269443	870	129
0	1270932	871	136
0	1272603	872	172
0	1274149	873	171
0	1275549	874	135
0	1277391	875	171
0	1278887	876	155
0	1280507	877	155
0	1281962	878	124
0	1283358	879	127
0	1284704	880	130
0	1286102	881	127
0	1287576	882	147
0	1288914	883	115
0	1290270	884	133
0	1291741	885	130
0	1292982	886	116
0	1294194	887	123
0	1295549	888	140
0	1297178	889	156
0	1298643	890	137
0	1300215	891	155
0	1301673	892	131
0	1303169	893	143
0	1304548	894	134
0	1306367	895	200
0	1307934	896	144
0	1309395	897	152
0	1310726	898	132
0	1312095	899	126
0	1313663	900	158
0	1314986	901	104
0	1316644	902	171
0	1317777	903	118
0	1319185	904	133
0	1320386	905	112
0	1322127	906	160
0	1323296	907	98
0	1324859	908	144
0	1326786	909	202
0	1328201	910	147
0	1329871	911	153
0	1331757	912	197
0	1333321	913	151
0	1334953	914	149
0	1336076	915	106
0	1337503	916	150
0	1339034	917	138
0	1340570	918	157
0	1342086	919	149
0	1343486	920	124
0	1344848	921	145
0	1346247	922	124
0	1347744	923	140
0	1349079	924	122
0	1350345	925	135
0	1351898	926	168
0	1353100	927	107
0	1354459	928	134
0	1355863	929	123
0	1357352	930	143
0	1359107	931	166
0	1360465	932	125
0	1361519	933	95
0	1362916	934	146
0	1364257	935	134
0	1366127	936	209
0	1367963	937	187
0	1369782	938	186
0	1371531	939	170
0	1373146	940	151
0	1374431	941	128
0	1375780	942	120
0	1377362	943	143
0	1378663	944	118
0	1380105	945	135
0	1381636	946	144
0	1383079	947	136
0	1384619	948	153
0	1386226	949	154
0	1387719	950	133
0	1389262	951	152
0	1390839	952	142
0	1392528	953	164
0	1394424	954	189
0	1395746	955	127
0	1397350	956	155
0	1398913	957	150
0	1400554	958	158
0	1402031	959	148
0	1403410	960	133
0	1404891	961	152
0	1406090	962	124
0	1407448	963	123
0	1408978	964	171
0	1410439	965	130
0	1411730	966	118
0	1413307	967	160
0	1414434	968	110
0	1415567	969	96
0	1417046	970	133
0	1418619	971	172
0	1420227	972	165
0	1421866	973	152
0	1423201	974	104
0	1424515	975	105
0	1426000	976	134
0	1427609	977	156
0	1428930	978	132
0	1430094	979	105
0	1431889	980	149
0	1433581	981	153
0	1435094	982	144
0	1436773	983	168
0	1437793	984	91
0	1439430	985	148
0	1440704	986	123
0	1442139	987	146
0	1443633	988	125
0	1445065	989	119
0	1446704	990	169
0	1447986	991	125
0	1449363	992	114
0	1450383	993	93
0	1451715	994	145
0	1453095	995	125
0	1454394	996	126
0	1455660	997	119
0	1457153	998	140
0	1458913	999	169
0	1460785	1000	192
0	1462017	1001	101
0	1463330	1002	128
0	1464751	1003	140
0	1466381	1004	159
0	1467646	1005	132
0	1468754	1006	93
0	1469778	1007	93
0	1471327	1008	140
0	1472814	1009	158
0	1474168	1010	136
0	1475794	1011	155
0	1477462	1012	165
0	1478967	1013	162
0	1480585	1014	171
0	1481846	1015	122
0	1483295	1016	140
0	1484837	1017	119
0	1486313	1018	155
0	1488202	1019	204
0	1489818	1020	160
0	1491249	1021	118
0	1493005	1022	181
0	1494337	1023	113
0	1495545	1024	121
0	1497059	1025	141
0	1498365	1026	117
0	1499814	1027	144
0	1501186	1028	137
0	1502389	1029	118
0	1503697	1030	132
0	1505440	1031	162
0	1506957	1032	128
0	1508517	1033	137
0	1509742	1034	124
0	1511036	1035	111
0	1512537	1036	144
0	1514040	1037	134
0	1515523	1038	144
0	1516873	1039	127
0	1518219	1040	116
0	1519898	1041	154
0	1521383	1042	140
0	1522761	1043	131
0	1524303	1044	147
0	1525627	1045	115
0	1527025	1046	137
0	1528393	1047	131
0	1529708	1048	128
0	1531184	1049	145
0	1532917	1050	163
0	1534463	1051	167
0	1536117	1052	151
0	1537637	1053	129
0	1539024	1054	138
0	1540188	1055	109
0	1541660	1056	141
0	1543076	1057	129
0	1544484	1058	139
0	1546020	1059	159
0	1547185	1060	119
0	1548575	1061	151
0	1550495	1062	187
0	1552152	1063	156
0	1553629	1064	158
0	1555187	1065	161
0	1556551	1066	137
0	1557943	1067	131
0	1559607	1068	153
0	1560984	1069	132
0	1562264	1070	118
0	1563406	1071	101
0	1565117	1072	166
0	1566473	1073	115
0	1567989	1074	169
0	1569487	1075	157
0	1570786	1076	134
0	1572295	1077	136
0	1573655	1078	125
0	1575201	1079	159
0	1576755	1080	138
0	1578545	1081	159
0	1579750	1082	104
0	1581182	1083	151
0	1582616	1084	141
0	1584119	1085	138
0	1585802	1086	150
0	1587381	1087	176
0	1588958	1088	168
0	1590256	1089	133
0	1591580	1090	128
0	1592959	1091	138
0	1594181	1092	119
0	1595457	1093	105
0	1597053	1094	165
0	1598394	1095	116
0	1599897	1096	142
0	1601638	1097	166
0	1603036	1098	141
0	1604647	1099	166
0	1606235	1100	138
0	1607876	1101	158
0	1609056	1102	109
0	1610788	1103	177
0	1612243	1104	138
0	1613537	1105	111
0	1615004	1106	154
0	1616723	1107	182
0	1618133	1108	155
0	1619451	1109	127
0	1620722	1110	121
0	1622461	1111	162
0	1623577	1112	97
0	1625015	1113	125
0	1626290	1114	112
0	1627632	1115	127
0	1629063	1116	170
0	1630611	1117	139
0	1632143	1118	137
0	1633472	1119	130
0	1635142	1120	182
0	1636622	1121	139
0	1638311	1122	170
0	1639894	1123	152
0	1641569	1124	172
0	1643231	1125	153
0	1644971	1126	175
0	1646732	1127	172
0	1647978	1128	113
0	1649790	1129	187
0	1651120	1130	122
0	1652958	1131	203
0	1654428	1132	127
0	1655820	1133	131
0	1657182	1134	135
0	1658530	1135	107
0	1660319	1136	178
0	1661854	1137	160
0	1663376	1138	155
0	1664693	1139	132
0	1666285	1140	136
0	1667474	1141	98
0	1668933	1142	152
0	1670289	1143	121
0	1671843	1144	159
0	1673549	1145	171
0	1675158	1146	144
0	1676600	1147	127
0	1677897	1148	128
0	1679611	1149	167
0	1681247	1150	148
0	1682628	1151	128
0	1684009	1152	104
0	1685522	1153	140
0	1686989	1154	164
0	1688485	1155	117
0	1689918	1156	142
0	1691390	1157	133
0	1692884	1158	139
0	1694504	1159	155
0	1695881	1160	139
0	1697501	1161	145
0	1699027	1162	153
0	1700604	1163	156
0	1701885	1164	124
0	1703263	1165	131
0	1704747	1166	135
0	1705916	1167	102
0	1707586	1168	169
0	1709109	1169	152
0	1710475	1170	118
0	1712015	1171	145
0	1713477	1172	147
0	1714944	1173	146
0	1716324	1174	117
0	1717675	1175	142
0	1719468	1176	154
0	1721092	1177	157
0	1722810	1178	161
0	1724210	1179	137
0	1725601	1180	125
0	1726965	1181	137
0	1728346	1182	136
0	1729798	1183	131
0	1731336	1184	149
0	1732656	1185	129
0	1734303	1186	170
0	1735571	1187	113
0	1736991	1188	133
0	1738196	1189	108
0	1739717	1190	127
0	1741000	1191	126
0	1742325	1192	126
0	1743819	1193	149
0	1745259	1194	145
0	1746624	1195	132
0	1747897	1196	130
0	1749125	1197	135
0	1750561	1198	117
0	1752199	1199	153
0	1753717	1200	132
0	1755213	1201	141
0	1756600	1202	126
0	1758149	1203	156
0	1759647	1204	167
0	1761120	1205	134
0	1762421	1206	134
0	1764001	1207	157
0	1765615	1208	147
0	1767043	1209	153
0	1768762	1210	181
0	1770443	1211	160
0	1771995	1212	143
0	1773417	1213	139
0	1774753	1214	105
0	1776082	1215	138
0	1777275	1216	106
0	1778808	1217	162
0	1780107	1218	102
0	1781637	1219	139
0	1782792	1220	105
0	1784385	1221	138
0	1785784	1222	140
0	1787196	1223	147
0	1788504	1224	133
0	1789753	1225	130
0	1791604	1226	170
0	1792992	1227	121
0	1794198	1228	117
0	1795492	1229	125
0	1796815	1230	129
0	1798347	1231	149
0	1799952	1232	132
0	1801406	1233	143
0	1802876	1234	155
0	1804159	1235	126
0	1805737	1236	163
0	1807556	1237	194
0	1809004	1238	161
0	1810256	1239	125
0	1811324	1240	110
0	1812870	1241	133
0	1814579	1242	158
0	1815735	1243	115
0	1817272	1244	144
0	1818658	1245	123
0	1820482	1246	183
0	1822047	1247	156
0	1823415	1248	129
0	1825556	1249	216
0	1827211	1250	149
0	1828888	1251	182
0	1829968	1252	109
0	1831385	1253	132
0	1832935	1254	147
0	1834541	1255	155
0	1835980	1256	120
0	1837474	1257	157
0	1838803	1258	136
0	1840033	1259	125
0	1841688	1260	171
0	1843188	1261	145
0	1844851	1262	166
0	1846500	1263	160
0	1848051	1264	150
0	1849311	1265	125
0	1850799	1266	137
0	1852154	1267	118
0	1853428	1268	119
0	1854784	1269	123
0	1856168	1270	116
0	1857650	1271	141
0	1859292	1272	173
0	1860691	1273	144
0	1862438	1274	178
0	1863961	1275	130
0	1865522	1276	166
0	1867089	1277	154
0	1868559	1278	133
0	1869862	1279	130
0	1871244	1280	136
0	1872893	1281	146
0	1874168	1282	136
0	1875700	1283	151
0	1877294	1284	139
0	1878961	1285	150
0	1880311	1286	143
0	1881864	1287	156
0	1883505	1288	168
0	1884808	1289	122
0	1886672	1290	196
0	1888225	1291	144
0	1889645	1292	119
0	1890955	1293	119
0	1892364	1294	134
0	1894008	1295	155
0	1895688	1296	171
0	1897115	1297	140
0	1898545	1298	125
0	1900327	1299	171
0	1901545	1300	118
0	1903188	1301	170
0	1904632	1302	137
0	1906350	1303	155
0	1907789	1304	118
0	1909130	1305	120
0	1910793	1306	146
0	1912086	1307	134
0	1913675	1308	158
0	1915173	1309	147
0	1917042	1310	171
0	1918302	1311	121
0	1919940	1312	147
0	1921663	1313	158
0	1923376	1314	180
0	1924855	1315	152
0	1925975	1316	91
0	1927431	1317	125
0	1929089	1318	175
0	1930344	1319	126
0	1931658	1320	138
0	1933109	1321	124
0	1934565	1322	157
0	1936387	1323	193
0	1937698	1324	134
0	1939031	1325	130
0	1940809	1326	177
0	1942293	1327	125
0	1943682	1328	144
0	1944878	1329	113
0	1946416	1330	144
0	1947935	1331	140
0	1949456	1332	140
0	1950777	1333	138
0	1952263	1334	155
0	1953606	1335	124
0	1955033	1336	126
0	1956133	1337	93
0	1957570	1338	136
0	1958893	1339	126
0	1960138	1340	113
0	1961840	1341	159
0	1963061	1342	114
0	1964290	1343	128
0	1965782	1344	151
0	1966982	1345	99
0	1968428	1346	141
0	1970113	1347	178
0	1971603	1348	143
0	1973077	1349	143
0	1974665	1350	158
0	1976075	1351	149
0	1977546	1352	122
0	1979119	1353	150
0	1980544	1354	138
0	1982116	1355	153
0	1983703	1356	170
0	1985396	1357	170
0	1986446	1358	93
0	1987824	1359	115
0	1989269	1360	143
0	1990771	1361	151
0	1991811	1362	93
0	1992709	1363	91
0	1994275	1364	147
0	1995605	1365	137
0	1997067	1366	141
0	1998670	1367	158
0	1999986	1368	129
0	2001335	1369	116
0	2002967	1370	148
0	2004429	1371	127
0	2005935	1372	133
0	2007442	1373	136
0	2008631	1374	112
0	2010008	1375	124
0	2011632	1376	171
0	2012962	1377	113
0	2014543	1378	184
0	2016095	1379	133
0	2017660	1380	149
0	2019129	1381	174
0	2020252	1382	90
0	2021594	1383	131
0	2023089	1384	146
0	2024884	1385	172
0	2025945	1386	82
0	2027318	1387	132
0	2028580	1388	119
0	2029852	1389	109
0	2031282	1390	142
0	2032841	1391	170
0	2034030	1392	116
0	2035484	1393	133
0	2037024	1394	135
0	2038595	1395	164
0	2040198	1396	140
0	2041818	1397	175
0	2043179	1398	130
0	2044409	1399	123
0	2045953	1400	146
0	2047808	1401	180
0	2049285	1402	152
0	2050665	1403	121
0	2051954	1404	120
0	2053469	1405	142
0	2054872	1406	146
0	2056188	1407	127
0	2057499	1408	122
0	2058996	1409	164
0	2060586	1410	160
0	2061986	1411	141
0	2063148	1412	93
0	2064778	1413	171
0	2065920	1414	99
0	2067650	1415	165
0	2069255	1416	142
0	2070632	1417	134
0	2072075	1418	142
0	2073855	1419	173
0	2075361	1420	142
0	2076834	1421	162
0	2078410	1422	163
0	2079779	1423	132
0	2080927	1424	101
0	2082663	1425	179
0	2084244	1426	128
0	2086210	1427	185
0	2087720	1428	143
0	2089346	1429	169
0	2090670	1430	122
0	2092123	1431	140
0	2093602	1432	134
0	2094930	1433	129
0	2096754	1434	191
0	2098006	1435	115
0	2099177	1436	110
0	2100730	1437	150
0	2101863	1438	102
0	2103184	1439	132
0	2104397	1440	117
0	2105555	1441	131
0	2106947	1442	135
0	2108328	1443	124
0	2109831	1444	140
0	2111443	1445	145
0	2112867	1446	123
0	2114295	1447	135
0	2115727	1448	147
0	2117004	1449	132
0	2118539	1450	151
0	2120089	1451	151
0	2121661	1452	169
0	2123252	1453	154
0	2124852	1454	179
0	2126552	1455	181
0	2128007	1456	146
0	2129395	1457	133
0	2130911	1458	145
0	2132409	1459	151
0	2133938	1460	143
0	2135361	1461	110
0	2137050	1462	168
0	2138571	1463	144
0	2140138	1464	134
0	2141314	1465	117
0	2142630	1466	107
0	2144099	1467	158
0	2145320	1468	100
0	2146648	1469	117
0	2148287	1470	149
0	2149637	1471	135
0	2150997	1472	117
0	2152537	1473	153
0	2154044	1474	142
0	2155553	1475	148
0	2157092	1476	128
0	2158390	1477	117
0	2159870	1478	137
0	2161466	1479	165
0	2162665	1480	111
0	2163973	1481	115
0	2165462	1482	152
0	2166870	1483	101
0	2168220	1484	131
0	2169525	1485	114
0	2170836	1486	132
0	2171878	1487	79
0	2173361	1488	144
0	2174471	1489	93
0	2175833	1490	130
0	2177407	1491	155
0	2178886	1492	138
0	2180250	1493	137
0	2181719	1494	122
0	2183365	1495	159
0	2184885	1496	147
0	2186273	1497	153
0	2187548	1498	118
0	2189243	1499	178
0	2190605	1500	130
0	2191901	1501	121
0	2193861	1502	207
0	2195319	1503	125
0	2196762	1504	152
0	2198180	1505	129
0	2199480	1506	105
0	2201094	1507	143
0	2202282	1508	105
0	2203655	1509	142
0	2204923	1510	134
0	2206414	1511	162
0	2207987	1512	160
0	2209363	1513	137
0	2210925	1514	163
0	2212655	1515	155
0	2214417	1516	181
0	2216179	1517	167
0	2217708	1518	148
0	2219153	1519	158
0	2220393	1520	132
0	2221859	1521	119
0	2223547	1522	169
0	2225314	1523	158
0	2226895	1524	158
0	2228251	1525	133
0	2230088	1526	164
0	2231503	1527	120
0	2232829	1528	131
0	2234343	1529	129
0	2235724	1530	143
0	2237326	1531	143
0	2238435	1532	98
0	2239810	1533	134
0	2241118	1534	121
0	2242268	1535	107
0	2243759	1536	158
0	2245073	1537	119
0	2246906	1538	172
0	2248391	1539	146
0	2250121	1540	162
0	2251346	1541	120
0	2252865	1542	152
0	2254022	1543	100
0	2255683	1544	190
0	2257033	1545	139
0	2258270	1546	106
0	2259623	1547	122
0	2260899	1548	123
0	2262396	1549	144
0	2263961	1550	153
0	2265208	1551	116
0	2267081	1552	168
0	2268459	1553	113
0	2270061	1554	145
0	2271312	1555	122
0	2273295	1556	216
0	2274898	1557	158
0	2276190	1558	131
0	2277751	1559	148
0	2279531	1560	182
0	2280845	1561	121
0	2282162	1562	116
0	2283584	1563	135
0	2284807	1564	116
0	2286285	1565	145
0	2287535	1566	121
0	2289217	1567	165
0	2290573	1568	129
0	2291733	1569	105
0	2292859	1570	102
0	2294088	1571	120
0	2295377	1572	126
0	2296726	1573	150
0	2298135	1574	130
0	2299571	1575	137
0	2301134	1576	142
0	2302557	1577	144
0	2303838	1578	120
0	2305351	1579	146
0	2306889	1580	144
0	2308444	1581	158
0	2310093	1582	148
0	2311777	1583	163
0	2313120	1584	108
0	2314648	1585	141
0	2316314	1586	163
0	2317748	1587	143
0	2319258	1588	135
0	2320448	1589	119
0	2321977	1590	163
0	2323176	1591	118
0	2324479	1592	120
0	2326012	1593	150
0	2327690	1594	165
0	2329018	1595	127
0	2330547	1596	168
0	2331982	1597	142
0	2333483	1598	136
0	2334997	1599	151
0	2336559	1600	170
0	2338066	1601	144
0	2339567	1602	150
0	2341100	1603	156
0	2342689	1604	156
0	2344144	1605	130
0	2345646	1606	161
0	2347257	1607	158
0	2348575	1608	105
0	2349941	1609	139
0	2351367	1610	124
0	2352562	1611	116
0	2354006	1612	145
0	2355430	1613	153
0	2356876	1614	147