version 3
run SimulationTime-161-20240107-16:16:55-17244
attr configname SimulationTime
attr datetime 20240107-16:16:55
attr datetimef 20240107-161655
attr experiment SimulationTime
attr inifile omnetpp.ini
attr iterationvars ""
attr iterationvarsd ""
attr iterationvarsf ""
attr measurement ""
attr network System
attr processid 17244
attr repetition 161
attr replication #161
attr resultdir results
attr runnumber 161
attr seedset 161
config **.cpu.rate 1000
config **.hd.rateProcessing 250
config **.webServer.web_server_rate 100
config **.p1 0.35
config **.p2 0.40
config network System
config num-rngs 4
config **.cpu.rng-0 0
config **.cpu.rng-1 1
config **.hd.rng-0 2
config **.webServer.rng-0 3
config repeat 500
config seed-set 161
config sim-time-limit 10000s
config **.client.numClients 40

vector 0 System.server.cpu requestCounterStat:vector ETV
attr recordingmode vector
attr source requestCounter
vector 1 System.server.hd utilizationHdStat:vector ETV
attr recordingmode vector
attr source utilizationHd
vector 2 System.server.cpu utilizationCpuStat:vector ETV
attr recordingmode vector
attr source utilizationCpu
vector 3 System.webServer utilizationWsStat:vector ETV
attr recordingmode vector
attr source utilizationWs
0	2229	1	236
0	3588	2	138
0	5036	3	145
0	6485	4	120
0	7888	5	142
0	8962	6	99
0	10096	7	99
0	11875	8	184
0	13641	9	185
0	15482	10	179
0	16973	11	150
0	18593	12	175
0	20299	13	165
0	21678	14	142
0	23082	15	145
0	24606	16	161
0	25990	17	125
0	27467	18	146
0	28851	19	135
0	30249	20	134
0	31631	21	123
0	32856	22	118
0	34302	23	141
0	35891	24	136
0	37572	25	158
0	38861	26	118
0	40116	27	126
0	41632	28	165
0	43292	29	161
0	44233	30	91
0	45466	31	124
0	46804	32	113
0	47925	33	102
0	49643	34	173
0	51260	35	150
0	53155	36	186
0	54557	37	125
0	56339	38	189
0	57781	39	151
0	59538	40	201
0	61286	41	183
0	63420	42	219
0	65021	43	162
0	66621	44	171
0	67777	45	117
0	68963	46	107
0	70336	47	132
0	71975	48	158
0	72945	49	81
0	74439	50	136
0	75937	51	127
0	77575	52	155
0	79072	53	146
0	80334	54	119
0	81629	55	118
0	82744	56	110
0	84315	57	138
0	85632	58	128
0	87262	59	153
0	88544	60	124
0	90313	61	192
0	91646	62	118
0	93161	63	144
0	94535	64	129
0	96271	65	185
0	97744	66	140
0	99521	67	182
0	101032	68	148
0	102612	69	145
0	103865	70	111
0	105507	71	157
0	106749	72	121
0	108112	73	142
0	109738	74	171
0	111461	75	158
0	112950	76	146
0	114184	77	93
0	115635	78	160
0	117061	79	149
0	118574	80	159
0	120129	81	154
0	121544	82	128
0	123005	83	138
0	124615	84	161
0	125958	85	142
0	127490	86	149
0	128840	87	127
0	130333	88	142
0	131566	89	108
0	133327	90	187
0	134794	91	128
0	136393	92	148
0	137715	93	135
0	139008	94	124
0	140492	95	149
0	141957	96	132
0	143365	97	143
0	144725	98	131
0	146147	99	131
0	147409	100	134
0	148905	101	143
0	150375	102	145
0	151569	103	105
0	153319	104	185
0	154650	105	122
0	155871	106	120
0	157402	107	158
0	158954	108	161
0	160395	109	128
0	162048	110	163
0	163674	111	155
0	165202	112	161
0	166392	113	101
0	167814	114	157
0	169535	115	156
0	170942	116	126
0	172370	117	147
0	173940	118	141
0	175479	119	154
0	176827	120	132
0	178252	121	154
0	179590	122	125
0	180932	123	129
0	182592	124	149
0	184333	125	162
0	185951	126	163
0	187018	127	98
0	188440	128	127
0	190003	129	142
0	191640	130	155
0	193037	131	144
0	194547	132	147
0	195877	133	119
0	197248	134	126
0	198648	135	129
0	199988	136	141
0	201383	137	142
0	203099	138	171
0	204717	139	145
0	206404	140	145
0	207954	141	147
0	209585	142	170
0	211214	143	140
0	213066	144	181
0	214577	145	144
0	215990	146	132
0	217208	147	105
0	218359	148	108
0	219747	149	135
0	221276	150	167
0	222888	151	173
0	224047	152	120
0	225406	153	140
0	227048	154	153
0	228489	155	130
0	230080	156	170
0	231871	157	166
0	233302	158	126
0	234478	159	101
0	235862	160	140
0	237135	161	110
0	238501	162	127
0	240319	163	181
0	241622	164	122
0	243097	165	146
0	244571	166	125
0	246006	167	150
0	247308	168	137
0	248512	169	109
0	249952	170	164
0	251223	171	114
0	252850	172	150
0	254103	173	124
0	255756	174	160
0	257418	175	171
0	258861	176	134
0	260536	177	174
0	262440	178	193
0	264034	179	155
0	265637	180	137
0	267004	181	150
0	268261	182	134
0	269751	183	123
0	270951	184	99
0	272347	185	133
0	273558	186	112
0	275062	187	131
0	276789	188	168
0	278314	189	150
0	279798	190	140
0	281090	191	129
0	282303	192	116
0	283892	193	152
0	285383	194	146
0	287391	195	195
0	288805	196	121
0	290132	197	138
0	291665	198	162
0	293197	199	135
0	294861	200	160
0	296122	201	128
0	297617	202	118
0	298953	203	129
0	300200	204	118
0	301471	205	114
0	302909	206	139
0	304188	207	98
0	305896	208	183
0	307316	209	135
0	308952	210	166
0	310573	211	146
0	312330	212	176
0	314122	213	181
0	315607	214	132
0	316862	215	104
0	318365	216	132
0	319889	217	153
0	321253	218	111
0	322487	219	107
0	324240	220	169
0	325671	221	144
0	327134	222	144
0	328758	223	153
0	330439	224	170
0	331811	225	123
0	332944	226	104
0	334409	227	126
0	335991	228	135
0	337530	229	152
0	339277	230	173
0	340601	231	123
0	342229	232	171
0	343742	233	148
0	345118	234	129
0	346519	235	128
0	347836	236	124
0	349160	237	125
0	350900	238	191
0	352491	239	160
0	353730	240	115
0	355358	241	157
0	356666	242	119
0	358231	243	140
0	359673	244	135
0	360893	245	113
0	362257	246	127
0	363764	247	148
0	365163	248	122
0	366651	249	145
0	367985	250	130
0	369256	251	122
0	370666	252	151
0	372156	253	151
0	373620	254	137
0	374976	255	109
0	376522	256	163
0	378094	257	137
0	379950	258	185
0	381460	259	151
0	382689	260	107
0	383987	261	107
0	385603	262	173
0	387172	263	144
0	388481	264	128
0	390035	265	143
0	391178	266	112
0	392946	267	183
0	394501	268	150
0	395853	269	125
0	397074	270	115
0	398400	271	127
0	399716	272	129
0	401098	273	145
0	402483	274	134
0	403970	275	150
0	405374	276	129
0	406721	277	110
0	407946	278	104
0	409503	279	156
0	411246	280	169
0	412791	281	140
0	414825	282	187
0	416261	283	137
0	418054	284	176
0	419621	285	162
0	421049	286	137
0	422605	287	157
0	423985	288	119
0	425477	289	147
0	427005	290	132
0	428951	291	179
0	430471	292	145
0	432159	293	157
0	433628	294	132
0	435197	295	164
0	436455	296	113
0	437985	297	131
0	439272	298	132
0	440886	299	135
0	442658	300	176
0	443836	301	107
0	445208	302	137
0	446412	303	101
0	447782	304	147
0	449249	305	138
0	450595	306	149
0	452139	307	131
0	453658	308	134
0	455124	309	147
0	456377	310	121
0	457959	311	145
0	459283	312	123
0	460723	313	125
0	462200	314	150
0	463636	315	129
0	465184	316	141
0	466738	317	123
0	468268	318	155
0	470049	319	182
0	471340	320	119
0	473081	321	180
0	474670	322	172
0	476083	323	140
0	477434	324	130
0	478561	325	124
0	479876	326	126
0	481042	327	99
0	482343	328	118
0	484080	329	176
0	485335	330	109
0	486889	331	159
0	488356	332	134
0	489668	333	123
0	491210	334	151
0	492548	335	121
0	494083	336	126
0	495583	337	129
0	496647	338	85
0	497979	339	129
0	499414	340	137
0	500749	341	128
0	502256	342	140
0	503637	343	128
0	505210	344	152
0	506384	345	119
0	507781	346	128
0	509457	347	153
0	510890	348	128
0	512543	349	172
0	514099	350	158
0	515305	351	109
0	516715	352	143
0	518428	353	164
0	520045	354	144
0	521649	355	161
0	523117	356	145
0	524771	357	167
0	526125	358	131
0	527767	359	175
0	529091	360	114
0	530724	361	154
0	532223	362	162
0	533658	363	122
0	534894	364	117
0	536379	365	140
0	537793	366	131
0	539115	367	107
0	540558	368	134
0	542139	369	156
0	543666	370	151
0	545004	371	125
0	546544	372	149
0	548042	373	151
0	549641	374	140
0	550895	375	113
0	552762	376	182
0	554301	377	152
0	555954	378	166
0	557469	379	154
0	558820	380	119
0	560348	381	149
0	562128	382	171
0	563549	383	136
0	564670	384	96
0	566351	385	176
0	567666	386	138
0	569135	387	136
0	570285	388	123
0	571704	389	130
0	573203	390	119
0	574871	391	153
0	576375	392	157
0	577741	393	141
0	579292	394	134
0	580731	395	130
0	582402	396	170
0	583963	397	144
0	585315	398	129
0	586523	399	113
0	588188	400	155
0	589437	401	104
0	590763	402	127
0	592256	403	136
0	593734	404	151
0	595520	405	175
0	596763	406	106
0	598543	407	181
0	599911	408	165
0	601224	409	124
0	602711	410	129
0	603973	411	123
0	605486	412	148
0	607245	413	166
0	608608	414	138
0	610291	415	178
0	611770	416	160
0	613192	417	153
0	614854	418	161
0	616526	419	159
0	617630	420	100
0	618877	421	118
0	620169	422	115
0	621289	423	91
0	622791	424	153
0	624531	425	167
0	625848	426	116
0	627333	427	128
0	628381	428	97
0	630063	429	171
0	631663	430	148
0	632912	431	108
0	634289	432	118
0	635595	433	125
0	637077	434	151
0	638513	435	139
0	640062	436	166
0	641445	437	130
0	642904	438	132
0	644326	439	129
0	645963	440	161
0	647803	441	183
0	649488	442	140
0	650953	443	122
0	652317	444	145
0	653393	445	115
0	654851	446	157
0	656067	447	107
0	657773	448	165
0	659366	449	162
0	660910	450	148
0	662556	451	167
0	663990	452	119
0	665123	453	94
0	666633	454	145
0	668228	455	140
0	669580	456	131
0	670869	457	112
0	672093	458	109
0	673825	459	189
0	675397	460	156
0	676764	461	146
0	678159	462	128
0	679574	463	126
0	680859	464	112
0	682518	465	156
0	683853	466	142
0	685168	467	136
0	686497	468	126
0	687994	469	150
0	689450	470	122
0	690748	471	123
0	691995	472	118
0	692985	473	79
0	694607	474	159
0	695793	475	99
0	697094	476	124
0	698394	477	117
0	699681	478	114
0	700992	479	138
0	702276	480	118
0	703500	481	111
0	704862	482	127
0	706536	483	151
0	708042	484	145
0	709563	485	138
0	710917	486	115
0	712453	487	161
0	713726	488	122
0	715155	489	128
0	716855	490	150
0	718399	491	137
0	719698	492	100
0	720848	493	113
0	722279	494	132
0	723675	495	147
0	725166	496	134
0	726716	497	151
0	728143	498	148
0	729469	499	135
0	730920	500	127
0	732612	501	161
0	734350	502	159
0	735664	503	127
0	737237	504	152
0	739044	505	182
0	740830	506	173
0	742260	507	143
0	744080	508	193
0	745538	509	133
0	746835	510	141
0	748536	511	160
0	749919	512	124
0	751660	513	182
0	753296	514	131
0	754730	515	127
0	756334	516	161
0	757928	517	139
0	759461	518	156
0	760801	519	115
0	762203	520	144
0	763951	521	175
0	765575	522	153
0	766779	523	107
0	768316	524	164
0	769915	525	154
0	771450	526	142
0	773229	527	188
0	774336	528	92
0	775882	529	167
0	777482	530	154
0	778571	531	110
0	779915	532	133
0	781326	533	138
0	782637	534	130
0	784123	535	141
0	785799	536	149
0	787248	537	124
0	788767	538	156
0	789957	539	119
0	791616	540	153
0	793222	541	155
0	794747	542	164
0	796059	543	125
0	797551	544	141
0	799338	545	170
0	800616	546	111
0	802215	547	162
0	803914	548	170
0	805412	549	135
0	806911	550	161
0	808076	551	98
0	809448	552	125
0	810952	553	147
0	812709	554	180
0	814186	555	158
0	815609	556	128
0	816953	557	125
0	818134	558	104
0	819554	559	133
0	821030	560	136
0	822590	561	147
0	824349	562	176
0	825773	563	133
0	827075	564	135
0	828529	565	129
0	830407	566	199
0	831980	567	150
0	833371	568	146
0	835038	569	170
0	836151	570	119
0	837806	571	142
0	839187	572	130
0	840727	573	163
0	842078	574	122
0	843775	575	142
0	845173	576	145
0	846444	577	122
0	847751	578	130
0	849232	579	162
0	850673	580	147
0	851908	581	124
0	853186	582	127
0	854848	583	143
0	855957	584	92
0	857558	585	132
0	858891	586	108
0	860304	587	132
0	862252	588	173
0	863836	589	129
0	865504	590	158
0	866739	591	134
0	868150	592	142
0	869362	593	121
0	870521	594	112
0	871600	595	94
0	873110	596	127
0	874772	597	147
0	876323	598	178
0	877478	599	114
0	879218	600	168
0	880451	601	128
0	882134	602	160
0	883544	603	133
0	885006	604	133
0	886398	605	125
0	887925	606	124
0	889363	607	131
0	890544	608	118
0	891927	609	138
0	893473	610	136
0	894791	611	111
0	896326	612	160
0	897500	613	105
0	898820	614	123
0	900271	615	140
0	901500	616	120
0	902750	617	147
0	904250	618	149
0	905743	619	134
0	906892	620	105
0	908216	621	121
0	909923	622	170
0	911390	623	160
0	913107	624	158
0	914819	625	181
0	916078	626	130
0	917606	627	149
0	918971	628	128
0	920750	629	178
0	922112	630	130
0	923764	631	171
0	925415	632	170
0	926839	633	147
0	927936	634	104
0	929528	635	141
0	930642	636	95
0	932027	637	132
0	933426	638	134
0	935047	639	134
0	936912	640	213
0	938119	641	118
0	939725	642	159
0	940923	643	111
0	942183	644	111
0	943121	645	77
0	944468	646	122
0	945537	647	100
0	947047	648	141
0	948481	649	129
0	949924	650	133
0	951265	651	126
0	952759	652	133
0	954201	653	129
0	955598	654	130
0	956967	655	116
0	958733	656	177
0	960067	657	129
0	961265	658	113
0	962648	659	138
0	963999	660	107
0	965612	661	156
0	967416	662	201
0	968589	663	112
0	970329	664	165
0	972087	665	175
0	973421	666	137
0	974786	667	134
0	976015	668	120
0	977463	669	135
0	978989	670	136
0	980558	671	154
0	982228	672	181
0	983862	673	147
0	985157	674	122
0	986391	675	107
0	987958	676	156
0	989713	677	184
0	990965	678	111
0	992522	679	150
0	993871	680	119
0	995239	681	125
0	996790	682	162
0	997896	683	103
0	999568	684	165
0	1000963	685	130
0	1002452	686	160
0	1003787	687	122
0	1005227	688	145
0	1006445	689	117
0	1007984	690	139
0	1009619	691	154
0	1010874	692	114
0	1012148	693	131
0	1013811	694	170
0	1015573	695	171
0	1017224	696	174
0	1018666	697	137
0	1020361	698	176
0	1022055	699	167
0	1023263	700	108
0	1024714	701	130
0	1025844	702	83
0	1027082	703	109
0	1028548	704	125
0	1029939	705	136
0	1031538	706	128
0	1032920	707	141
0	1034474	708	149
0	1035893	709	146
0	1037423	710	168
0	1039028	711	130
0	1040494	712	131
0	1041961	713	150
0	1043148	714	110
0	1044382	715	119
0	1045831	716	140
0	1047411	717	139
0	1048854	718	152
0	1050332	719	131
0	1051850	720	152
0	1053012	721	99
0	1054415	722	136
0	1055934	723	144
0	1057643	724	184
0	1059232	725	138
0	1060986	726	175
0	1062159	727	108
0	1063709	728	153
0	1065355	729	153
0	1066786	730	135
0	1068115	731	130
0	1069551	732	131
0	1070972	733	142
0	1072767	734	190
0	1074410	735	166
0	1076045	736	154
0	1077612	737	156
0	1079180	738	151
0	1080631	739	128
0	1082175	740	142
0	1083514	741	130
0	1085365	742	188
0	1086994	743	152
0	1088708	744	169
0	1090006	745	115
0	1091576	746	151
0	1093091	747	146
0	1094381	748	113
0	1095809	749	159
0	1097654	750	183
0	1098858	751	109
0	1100620	752	153
0	1102238	753	141
0	1103844	754	167
0	1105430	755	159
0	1106729	756	130
0	1108199	757	143
0	1109820	758	170
0	1111529	759	166
0	1112926	760	147
0	1114562	761	157
0	1116044	762	123
0	1117280	763	117
0	1118619	764	118
0	1120341	765	181
0	1121810	766	136
0	1123163	767	120
0	1124860	768	166
0	1126219	769	126
0	1127843	770	142
0	1129411	771	159
0	1130913	772	137
0	1132544	773	160
0	1134135	774	134
0	1135750	775	148
0	1137261	776	130
0	1138717	777	147
0	1140341	778	137
0	1142180	779	168
0	1143749	780	153
0	1144925	781	101
0	1146418	782	156
0	1147974	783	131
0	1149294	784	131
0	1150767	785	144
0	1152451	786	165
0	1153849	787	143
0	1155560	788	166
0	1157014	789	161
0	1158810	790	206
0	1160482	791	155
0	1162205	792	180
0	1163369	793	99
0	1164694	794	122
0	1166232	795	135
0	1167540	796	129
0	1169277	797	172
0	1170883	798	161
0	1172333	799	141
0	1173856	800	147
0	1175116	801	103
0	1176685	802	156
0	1178231	803	139
0	1179573	804	119
0	1181034	805	130
0	1182840	806	165
0	1184356	807	145
0	1185870	808	153
0	1187161	809	138
0	1188640	810	147
0	1190245	811	152
0	1191822	812	156
0	1193409	813	152
0	1195094	814	186
0	1196647	815	146
0	1198045	816	129
0	1199401	817	133
0	1201080	818	166
0	1202349	819	100
0	1203574	820	111
0	1205448	821	199
0	1207083	822	146
0	1208720	823	168
0	1210165	824	132
0	1211496	825	122
0	1212951	826	150
0	1214751	827	183
0	1216220	828	142
0	1217805	829	152
0	1218938	830	113
0	1220318	831	115
0	1221977	832	142
0	1223503	833	153
0	1224970	834	124
0	1226449	835	138
0	1228078	836	156
0	1229521	837	146
0	1230807	838	117
0	1232220	839	134
0	1233795	840	157
0	1234884	841	96
0	1236646	842	171
0	1237840	843	109
0	1239643	844	184
0	1240986	845	136
0	1242409	846	138
0	1244352	847	198
0	1245914	848	157
0	1247403	849	144
0	1248886	850	129
0	1250228	851	129
0	1251487	852	112
0	1252824	853	140
0	1254383	854	170
0	1255782	855	128
0	1256978	856	99
0	1258557	857	174
0	1259660	858	110
0	1261475	859	174
0	1262818	860	145
0	1264452	861	167
0	1265977	862	160
0	1267478	863	150
0	1268985	864	148
0	1270836	865	182
0	1272259	866	142
0	1273967	867	179
0	1275393	868	135
0	1276850	869	146
0	1278249	870	137
0	1279847	871	163
0	1281221	872	127
0	1282652	873	146
0	1283744	874	89
0	1284962	875	97
0	1286574	876	159
0	1288068	877	157
0	1289381	878	122
0	1290874	879	132
0	1291913	880	91
0	1293264	881	142
0	1294441	882	106
0	1296061	883	153
0	1298068	884	184
0	1299379	885	124
0	1300827	886	143
0	1302311	887	137
0	1303911	888	159
0	1305294	889	130
0	1306870	890	152
0	1308252	891	115
0	1309503	892	114
0	1310658	893	106
0	1312201	894	146
0	1313718	895	142
0	1315252	896	141
0	1316336	897	109
0	1317664	898	127
0	1319017	899	142
0	1320257	900	108
0	1321645	901	129
0	1323287	902	171
0	1324605	903	121
0	1326120	904	146
0	1327529	905	110
0	1329229	906	153
0	1330606	907	144
0	1332023	908	136
0	1333364	909	124
0	1334985	910	159
0	1336423	911	123
0	1337892	912	150
0	1339324	913	169
0	1341119	914	144
0	1342698	915	150
0	1344155	916	120
0	1345505	917	135
0	1346765	918	115
0	1348105	919	111
0	1349425	920	136
0	1350781	921	129
0	1352328	922	152
0	1353800	923	155
0	1355147	924	126
0	1356723	925	145
0	1358029	926	123
0	1359619	927	147
0	1360931	928	137
0	1362427	929	149
0	1363765	930	116
0	1365161	931	127
0	1366431	932	129
0	1367897	933	129
0	1369375	934	151
0	1370601	935	111
0	1371737	936	111
0	1373039	937	109
0	1374835	938	167
0	1376466	939	158
0	1377985	940	155
0	1379266	941	136
0	1380747	942	136
0	1382163	943	137
0	1383197	944	83
0	1384688	945	152
0	1385954	946	117
0	1387263	947	132
0	1388776	948	150
0	1389869	949	102
0	1391512	950	159
0	1393125	951	156
0	1394676	952	146
0	1395920	953	115
0	1397521	954	172
0	1399332	955	170
0	1401050	956	151
0	1402337	957	134
0	1403780	958	146
0	1405210	959	137
0	1406356	960	108
0	1408029	961	160
0	1409184	962	98
0	1410556	963	133
0	1411782	964	125
0	1413394	965	153
0	1414943	966	150
0	1416194	967	122
0	1417543	968	120
0	1419106	969	148
0	1420088	970	84
0	1421403	971	130
0	1422853	972	155
0	1424324	973	142
0	1425370	974	85
0	1426879	975	140
0	1428777	976	183
0	1430242	977	148
0	1431484	978	113
0	1432369	979	64
0	1433641	980	108
0	1435475	981	201
0	1436949	982	133
0	1438333	983	143
0	1439842	984	134
0	1441447	985	164
0	1442761	986	135
0	1443895	987	115
0	1445234	988	130
0	1446790	989	149
0	1447918	990	92
0	1449229	991	126
0	1451029	992	157
0	1452444	993	124
0	1454122	994	159
0	1455818	995	159
0	1457023	996	124
0	1458526	997	140
0	1459687	998	110
0	1461042	999	142
0	1462453	1000	133
0	1463980	1001	134
0	1465365	1002	132
0	1466704	1003	130
0	1467874	1004	111
0	1469046	1005	123
0	1470439	1006	122
0	1471653	1007	107
0	1473144	1008	160
0	1474548	1009	135
0	1476041	1010	163
0	1477670	1011	160
0	1479186	1012	147
0	1480607	1013	142
0	1481871	1014	119
0	1483161	1015	113
0	1484750	1016	140
0	1486258	1017	155
0	1487260	1018	89
0	1489204	1019	209
0	1490742	1020	158
0	1492121	1021	122
0	1493633	1022	157
0	1495276	1023	170
0	1496644	1024	125
0	1498309	1025	164
0	1499718	1026	130
0	1501382	1027	175
0	1502776	1028	131
0	1503906	1029	111
0	1505666	1030	156
0	1507041	1031	122
0	1508242	1032	116
0	1509264	1033	91
0	1510683	1034	140
0	1512362	1035	162
0	1513557	1036	112
0	1514981	1037	137
0	1516482	1038	130
0	1517753	1039	126
0	1519463	1040	168
0	1520698	1041	130
0	1521935	1042	110
0	1523488	1043	140
0	1524667	1044	100
0	1526203	1045	145
0	1527663	1046	137
0	1529073	1047	139
0	1530714	1048	156
0	1532210	1049	139
0	1533625	1050	123
0	1535294	1051	148
0	1537025	1052	178
0	1538088	1053	100
0	1539487	1054	148
0	1540851	1055	147
0	1542331	1056	135
0	1543861	1057	149
0	1545577	1058	167
0	1547120	1059	158
0	1548528	1060	128
0	1549983	1061	150
0	1551139	1062	109
0	1552374	1063	100
0	1554028	1064	143
0	1555944	1065	191
0	1557591	1066	156
0	1559178	1067	148
0	1560604	1068	137
0	1562086	1069	141
0	1563767	1070	171
0	1565215	1071	133
0	1566802	1072	168
0	1568183	1073	142
0	1569617	1074	127
0	1571210	1075	142
0	1572599	1076	130
0	1574276	1077	168
0	1575912	1078	185
0	1577411	1079	136
0	1579041	1080	142
0	1580636	1081	156
0	1581999	1082	146
0	1583452	1083	144
0	1584815	1084	142
0	1586448	1085	136
0	1587877	1086	136
0	1589243	1087	145
0	1590757	1088	161
0	1592404	1089	166
0	1593700	1090	116
0	1595187	1091	140
0	1596616	1092	126
0	1597666	1093	117
0	1598950	1094	119
0	1600171	1095	100
0	1601481	1096	123
0	1602910	1097	116
0	1604111	1098	126
0	1605630	1099	128
0	1607221	1100	149
0	1608508	1101	132
0	1610094	1102	153
0	1611435	1103	128
0	1612764	1104	144
0	1614119	1105	120
0	1615294	1106	98
0	1616400	1107	81
0	1617714	1108	109
0	1619203	1109	142
0	1620606	1110	137
0	1622057	1111	148
0	1623590	1112	130
0	1624809	1113	120
0	1626303	1114	163
0	1627725	1115	129
0	1628899	1116	103
0	1630249	1117	127
0	1631731	1118	147
0	1633214	1119	134
0	1634926	1120	180
0	1636286	1121	133
0	1637797	1122	134
0	1639389	1123	153
0	1640658	1124	120
0	1642099	1125	148
0	1643559	1126	135
0	1644901	1127	113
0	1646112	1128	98
0	1647930	1129	183
0	1649227	1130	121
0	1650420	1131	122
0	1651983	1132	142
0	1653558	1133	138
0	1654819	1134	108
0	1656155	1135	133
0	1657614	1136	138
0	1659014	1137	151
0	1660404	1138	115
0	1662006	1139	169
0	1663533	1140	147
0	1665149	1141	135
0	1666553	1142	129
0	1667641	1143	89
0	1669106	1144	134
0	1670763	1145	158
0	1672602	1146	174
0	1674151	1147	150
0	1675435	1148	131
0	1676849	1149	143
0	1678448	1150	165
0	1680245	1151	160
0	1681719	1152	139
0	1683221	1153	145
0	1684455	1154	105
0	1686056	1155	156
0	1687587	1156	154
0	1689069	1157	139
0	1690343	1158	115
0	1691983	1159	157
0	1693166	1160	107
0	1694486	1161	133
0	1696058	1162	149
0	1697404	1163	133
0	1698910	1164	127
0	1699983	1165	82
0	1701324	1166	152
0	1702765	1167	114
0	1704137	1168	129
0	1705370	1169	110
0	1706888	1170	128
0	1708299	1171	146
0	1709339	1172	101
0	1710967	1173	157
0	1712169	1174	95
0	1713292	1175	100
0	1715099	1176	170
0	1716583	1177	159
0	1717631	1178	107
0	1719063	1179	143
0	1720513	1180	158
0	1722201	1181	155
0	1723724	1182	150
0	1725145	1183	142
0	1726507	1184	113
0	1727851	1185	123
0	1729494	1186	170
0	1730549	1187	114
0	1731897	1188	129
0	1733575	1189	147
0	1735129	1190	142
0	1736607	1191	123
0	1737995	1192	117
0	1739175	1193	115
0	1740893	1194	171
0	1742604	1195	160
0	1743761	1196	108
0	1745059	1197	123
0	1746015	1198	85
0	1747777	1199	177
0	1749046	1200	121
0	1750611	1201	162
0	1752277	1202	157
0	1753880	1203	140
0	1755419	1204	126
0	1756863	1205	137
0	1758436	1206	158
0	1759698	1207	127
0	1761136	1208	149
0	1762610	1209	139
0	1764347	1210	143
0	1766196	1211	186
0	1767830	1212	167
0	1769436	1213	171
0	1771022	1214	163
0	1772840	1215	175
0	1774311	1216	132
0	1775721	1217	125
0	1777266	1218	140
0	1778837	1219	172
0	1780118	1220	111
0	1781442	1221	105
0	1782806	1222	105
0	1784128	1223	103
0	1785589	1224	146
0	1787150	1225	168
0	1788658	1226	143
0	1789733	1227	100
0	1791273	1228	141
0	1792470	1229	128
0	1793989	1230	151
0	1795165	1231	113
0	1796815	1232	157
0	1798492	1233	152
0	1799982	1234	139
0	1801586	1235	161
0	1803231	1236	174
0	1804249	1237	91
0	1805839	1238	151
0	1807407	1239	143
0	1809126	1240	145
0	1810739	1241	128
0	1812007	1242	117
0	1813061	1243	85
0	1814522	1244	146
0	1816025	1245	158
0	1817480	1246	150
0	1818834	1247	141
0	1820311	1248	142
0	1821612	1249	116
0	1823141	1250	147
0	1824495	1251	139
0	1825933	1252	127
0	1827537	1253	153
0	1828985	1254	127
0	1830582	1255	152
0	1831812	1256	117
0	1832899	1257	102
0	1834670	1258	190
0	1835991	1259	128
0	1837333	1260	146
0	1838819	1261	157
0	1840234	1262	132
0	1841552	1263	127
0	1843123	1264	154
0	1844721	1265	149
0	1846179	1266	145
0	1847807	1267	193
0	1849166	1268	128
0	1850667	1269	164
0	1852175	1270	134
0	1853686	1271	138
0	1855290	1272	153
0	1856794	1273	145
0	1858289	1274	134
0	1859873	1275	137
0	1861565	1276	167
0	1863297	1277	179
0	1864879	1278	159
0	1866134	1279	114
0	1867435	1280	121
0	1869145	1281	161
0	1870404	1282	118
0	1871961	1283	148
0	1873456	1284	138
0	1874592	1285	97
0	1875835	1286	118
0	1877037	1287	127
0	1878711	1288	155
0	1880199	1289	157
0	1881567	1290	144
0	1883027	1291	137
0	1884477	1292	141
0	1886211	1293	177
0	1887500	1294	114
0	1888850	1295	121
0	1890385	1296	122
0	1891801	1297	125
0	1893156	1298	122
0	1894475	1299	128
0	1896001	1300	148
0	1897585	1301	135
0	1899309	1302	147
0	1900623	1303	115
0	1902481	1304	215
0	1904476	1305	182
0	1906446	1306	207
0	1908061	1307	150
0	1909836	1308	166
0	1911627	1309	168
0	1913393	1310	172
0	1915142	1311	172
0	1916942	1312	165
0	1918092	1313	111
0	1919813	1314	172
0	1921338	1315	162
0	1923007	1316	178
0	1924619	1317	161
0	1926084	1318	148
0	1927242	1319	107
0	1928568	1320	122
0	1930369	1321	190
0	1931877	1322	151
0	1933486	1323	144
0	1935079	1324	138
0	1936396	1325	118
0	1937845	1326	138
0	1939628	1327	174
0	1940836	1328	123
0	1942238	1329	147
0	1943627	1330	149
0	1944980	1331	128
0	1946647	1332	172
0	1948067	1333	133
0	1949786	1334	156
0	1951286	1335	135
0	1952746	1336	139
0	1954073	1337	124
0	1955441	1338	113
0	1956973	1339	139
0	1958369	1340	134
0	1959610	1341	108
0	1961232	1342	155
0	1962619	1343	136
0	1964392	1344	196
0	1965953	1345	158
0	1967547	1346	157
0	1969112	1347	146
0	1970712	1348	161
0	1972212	1349	137
0	1973806	1350	160
0	1975438	1351	155
0	1976906	1352	145
0	1978247	1353	136
0	1979379	1354	111
0	1980967	1355	137
0	1982262	1356	120
0	1983580	1357	127
0	1985454	1358	181
0	1986793	1359	120
0	1988392	1360	137
0	1990132	1361	181
0	1991544	1362	105
0	1992815	1363	130
0	1994203	1364	143
0	1995790	1365	156
0	1997138	1366	131
0	1998604	1367	145
0	1999879	1368	106
0	2001460	1369	154
0	2003210	1370	192
0	2004431	1371	112
0	2006142	1372	182
0	2007762	1373	153
0	2009312	1374	145
0	2010756	1375	129
0	2012361	1376	170
0	2013777	1377	129
0	2015228	1378	152
0	2016401	1379	118
0	2017834	1380	133
0	2019424	1381	145
0	2020791	1382	126
0	2022152	1383	118
0	2023751	1384	140
0	2025217	1385	151
0	2026929	1386	167
0	2028321	1387	123
0	2029734	1388	148
0	2031254	1389	157
0	2033333	1390	207
0	2034938	1391	148
0	2036694	1392	167
0	2038278	1393	149
0	2039518	1394	109
0	2040887	1395	124
0	2042147	1396	129
0	2043606	1397	130
0	2045008	1398	155
0	2046439	1399	146
0	2047698	1400	131
0	2049447	1401	186
0	2051085	1402	151
0	2052961	1403	197
0	2054521	1404	143
0	2056389	1405	181
0	2057753	1406	135
0	2059277	1407	137
0	2060707	1408	135
0	2062189	1409	149
0	2063504	1410	131
0	2064834	1411	125
0	2066059	1412	110
0	2067818	1413	176
0	2069115	1414	142
0	2070906	1415	166
0	2072618	1416	191
0	2074333	1417	158
0	2075729	1418	135
0	2077519	1419	211
0	2079101	1420	142
0	2080388	1421	122
0	2081798	1422	131
0	2083180	1423	141
0	2084910	1424	171
0	2086291	1425	124
0	2087599	1426	131
0	2089138	1427	160
0	2090612	1428	133
0	2092109	1429	138
0	2093502	1430	133
0	2094588	1431	109
0	2095993	1432	134
0	2097220	1433	126
0	2098925	1434	172
0	2100644	1435	168
0	2102356	1436	171
0	2104064	1437	153
0	2105601	1438	152
0	2107222	1439	150
0	2108816	1440	144
0	2110196	1441	121
0	2111691	1442	154
0	2113178	1443	138
0	2114873	1444	166
0	2116466	1445	146
0	2118416	1446	185
0	2119740	1447	121
0	2121117	1448	136
0	2122471	1449	117
0	2124160	1450	181
0	2125685	1451	152
0	2127255	1452	143
0	2128966	1453	164
0	2130434	1454	151
0	2132227	1455	160
0	2133663	1456	129
0	2135024	1457	140
0	2136392	1458	131
0	2138179	1459	184
0	2139497	1460	106
0	2140760	1461	106
0	2142240	1462	121
0	2143693	1463	132
0	2145380	1464	166
0	2146718	1465	131
0	2148196	1466	135
0	2149793	1467	144
0	2151136	1468	134
0	2152454	1469	127
0	2153779	1470	127
0	2154981	1471	119
0	2156448	1472	126
0	2157945	1473	142
0	2159309	1474	117
0	2161002	1475	158
0	2162715	1476	194
0	2163807	1477	103
0	2165210	1478	142
0	2166663	1479	158
0	2168217	1480	144
0	2169715	1481	127
0	2170965	1482	119
0	2172503	1483	155
0	2174183	1484	165
0	2175531	1485	131
0	2176757	1486	101
0	2177964	1487	108
0	2179540	1488	147
0	2180965	1489	124
0	2182369	1490	138
0	2183958	1491	138
0	2185439	1492	150
0	2186890	1493	136
0	2188522	1494	149
0	2190125	1495	150
0	2191441	1496	115
0	2192965	1497	151
0	2194462	1498	160
0	2195766	1499	121
0	2197284	1500	148
0	2198813	1501	154
0	2199877	1502	87
0	2201291	1503	137
0	2202821	1504	147
0	2204541	1505	163
0	2206208	1506	178
0	2207770	1507	173
0	2209177	1508	144
0	2210471	1509	109
0	2211734	1510	109
0	2213290	1511	143
0	2214686	1512	123
0	2216150	1513	125
0	2217719	1514	164
0	2219352	1515	152
0	2220867	1516	142
0	2221933	1517	83
0	2223409	1518	137
0	2224796	1519	144
0	2226163	1520	121
0	2227520	1521	118
0	2228975	1522	144
0	2230371	1523	121
0	2232035	1524	161
0	2233759	1525	181
0	2235165	1526	149
0	2236444	1527	132
0	2237745	1528	126
0	2239244	1529	138
0	2240313	1530	107
0	2241816	1531	150
0	2243077	1532	116
0	2244477	1533	133
0	2245761	1534	137
0	2247255	1535	151
0	2248855	1536	161
0	2250436	1537	132
0	2251870	1538	127
0	2253477	1539	150
0	2255326	1540	183
0	2256721	1541	102
0	2258467	1542	173
0	2260047	1543	149
0	2261645	1544	151
0	2262915	1545	117
0	2264380	1546	116
0	2265782	1547	139
0	2267624	1548	187
0	2269038	1549	127
0	2270659	1550	153
0	2272137	1551	149
0	2273687	1552	139
0	2275108	1553	136
0	2276772	1554	149
0	2278369	1555	154
0	2280354	1556	194
0	2281588	1557	131
0	2283108	1558	145
0	2284660	1559	157
0	2286099	1560	137
0	2287439	1561	129
0	2288707	1562	117
0	2289995	1563	117
0	2291711	1564	147
0	2292811	1565	91
0	2293970	1566	102
0	2295544	1567	137
0	2296862	1568	139
0	2298433	1569	156
0	2299760	1570	129
0	2301108	1571	137
0	2302677	1572	156
0	2304228	1573	144
0	2305686	1574	133
0	2307036	1575	127
0	2308492	1576	109
0	2309895	1577	118
0	2311607	1578	185
0	2313041	1579	139
0	2314711	1580	166
0	2316245	1581	167
0	2317543	1582	131
0	2318935	1583	141
0	2320185	1584	121
0	2321699	1585	157
0	2323184	1586	150
0	2324486	1587	105
0	2325812	1588	137
0	2326998	1589	99
0	2328576	1590	138
0	2330305	1591	178
0	2332045	1592	161
0	2333521	1593	141
0	2334978	1594	128
0	2336207	1595	104
0	2337499	1596	117
0	2338778	1597	110
0	2340260	1598	137
0	2341741	1599	154
0	2343186	1600	141
0	2344701	1601	140
0	2346100	1602	126
0	2347314	1603	99
0	2348652	1604	135
0	2349883	1605	124
0	2351309	1606	145
0	2352708	1607	136
0	2354252	1608	171
0	2355581	1609	116
0	2356837	1610	104
0	2358585	1611	181
0	2360008	1612	122
0	2361518	1613	143
0	2363320	1614	189