version 3
run SimulationTime-347-20240108-13:23:30-6312
attr configname SimulationTime
attr datetime 20240108-13:23:30
attr datetimef 20240108-132330
attr experiment SimulationTime
attr inifile omnetpp.ini
attr iterationvars ""
attr iterationvarsd ""
attr iterationvarsf ""
attr measurement ""
attr network System
attr processid 6312
attr repetition 347
attr replication #347
attr resultdir results
attr runnumber 347
attr seedset 347
config **.cpu.rate 1000
config **.hd.rateProcessing 250
config **.webServer.web_server_rate 100
config **.p1 0.35
config **.p2 0.40
config network System
config num-rngs 4
config **.cpu.rng-0 0
config **.cpu.rng-1 1
config **.hd.rng-0 2
config **.webServer.rng-0 3
config repeat 500
config seed-set 347
config sim-time-limit 10000s
config **.client.numClients 40

vector 0 System.server.cpu requestCounterStat:vector ETV
attr recordingmode vector
attr source requestCounter
vector 1 System.server.hd utilizationHdStat:vector ETV
attr recordingmode vector
attr source utilizationHd
vector 2 System.server.cpu utilizationCpuStat:vector ETV
attr recordingmode vector
attr source utilizationCpu
vector 3 System.webServer utilizationWsStat:vector ETV
attr recordingmode vector
attr source utilizationWs
0	1924	1	185
0	3476	2	149
0	5014	3	163
0	6427	4	124
0	8180	5	182
0	9926	6	173
0	11185	7	134
0	12673	8	153
0	14145	9	149
0	15741	10	164
0	17244	11	130
0	18428	12	115
0	20133	13	160
0	21905	14	191
0	23481	15	149
0	25241	16	177
0	26606	17	132
0	27983	18	118
0	29632	19	162
0	30677	20	81
0	32138	21	126
0	33449	22	130
0	35004	23	142
0	36413	24	118
0	37749	25	123
0	39285	26	161
0	40659	27	127
0	42153	28	139
0	43519	29	127
0	45073	30	150
0	46565	31	153
0	47827	32	119
0	49017	33	109
0	50179	34	117
0	51803	35	163
0	53343	36	157
0	54655	37	127
0	55683	38	99
0	57157	39	133
0	59046	40	181
0	60416	41	127
0	61887	42	152
0	63003	43	105
0	64568	44	162
0	66282	45	169
0	67665	46	140
0	69308	47	168
0	70662	48	119
0	72022	49	117
0	73463	50	153
0	75126	51	164
0	76623	52	156
0	78270	53	160
0	80038	54	161
0	81425	55	124
0	83048	56	150
0	84523	57	156
0	85829	58	131
0	87600	59	140
0	88742	60	86
0	89955	61	124
0	91578	62	142
0	92877	63	112
0	94383	64	145
0	96385	65	195
0	98348	66	214
0	99727	67	118
0	101108	68	148
0	102339	69	106
0	103795	70	126
0	104755	71	93
0	106148	72	132
0	107349	73	124
0	108732	74	136
0	110426	75	163
0	111772	76	139
0	113170	77	123
0	114393	78	118
0	115533	79	99
0	117063	80	168
0	118588	81	154
0	120289	82	170
0	121637	83	139
0	122831	84	93
0	124149	85	113
0	125862	86	166
0	127040	87	123
0	128508	88	145
0	129975	89	148
0	131821	90	194
0	133061	91	111
0	134550	92	138
0	135792	93	107
0	137115	94	112
0	138319	95	115
0	139964	96	154
0	141517	97	140
0	143199	98	155
0	144367	99	127
0	146033	100	168
0	147362	101	134
0	149106	102	143
0	150955	103	184
0	152291	104	139
0	153670	105	128
0	155080	106	133
0	156587	107	148
0	158323	108	161
0	159474	109	90
0	160836	110	134
0	162206	111	139
0	163980	112	175
0	165607	113	166
0	167086	114	118
0	168496	115	151
0	169933	116	144
0	171332	117	136
0	172805	118	134
0	174305	119	125
0	175682	120	131
0	177387	121	154
0	179102	122	156
0	180324	123	131
0	181997	124	180
0	183409	125	137
0	184801	126	129
0	186578	127	156
0	188238	128	177
0	189654	129	139
0	191278	130	150
0	192725	131	130
0	194266	132	140
0	195602	133	129
0	196711	134	92
0	198354	135	142
0	199883	136	144
0	201403	137	135
0	202673	138	129
0	204230	139	148
0	205823	140	149
0	207320	141	144
0	208652	142	143
0	210187	143	162
0	211710	144	150
0	213252	145	155
0	214490	146	113
0	215761	147	124
0	216844	148	88
0	218201	149	122
0	219805	150	152
0	221384	151	146
0	222664	152	129
0	223773	153	108
0	225026	154	120
0	226448	155	139
0	227885	156	140
0	229270	157	138
0	230545	158	134
0	231890	159	112
0	233165	160	119
0	234743	161	171
0	235877	162	83
0	237497	163	151
0	239183	164	149
0	240968	165	166
0	242611	166	168
0	243827	167	117
0	245509	168	165
0	246774	169	112
0	248101	170	129
0	249825	171	161
0	251412	172	144
0	252766	173	131
0	254216	174	147
0	255755	175	156
0	257205	176	119
0	258675	177	143
0	259858	178	96
0	261016	179	99
0	262787	180	179
0	264092	181	124
0	265592	182	143
0	267026	183	139
0	268592	184	151
0	269895	185	114
0	271274	186	134
0	272446	187	101
0	273955	188	144
0	275379	189	143
0	276696	190	129
0	278093	191	136
0	279639	192	143
0	281239	193	167
0	282376	194	106
0	283891	195	150
0	285549	196	153
0	286855	197	127
0	288359	198	167
0	290049	199	169
0	291376	200	131
0	292902	201	131
0	294417	202	158
0	296180	203	182
0	297679	204	142
0	299127	205	125
0	300758	206	148
0	301875	207	98
0	303376	208	140
0	304602	209	119
0	305911	210	117
0	307345	211	141
0	308717	212	127
0	310160	213	136
0	311513	214	126
0	313381	215	167
0	314920	216	150
0	316355	217	138
0	317672	218	128
0	319407	219	160
0	320809	220	142
0	322219	221	135
0	323767	222	159
0	325058	223	128
0	326439	224	144
0	327825	225	119
0	329274	226	130
0	330797	227	138
0	332257	228	155
0	333546	229	122
0	335127	230	179
0	336448	231	124
0	337895	232	114
0	339558	233	158
0	340993	234	140
0	342995	235	213
0	344424	236	134
0	346047	237	150
0	347580	238	154
0	349025	239	120
0	350438	240	131
0	351794	241	125
0	353269	242	136
0	354337	243	91
0	356106	244	172
0	357749	245	174
0	358884	246	104
0	360205	247	122
0	361848	248	168
0	363338	249	127
0	364695	250	117
0	366217	251	149
0	367856	252	156
0	369298	253	125
0	370835	254	152
0	371955	255	103
0	373513	256	151
0	375004	257	146
0	376205	258	128
0	377623	259	123
0	378960	260	125
0	380232	261	137
0	381523	262	102
0	383117	263	161
0	384541	264	119
0	386136	265	156
0	387479	266	112
0	388779	267	123
0	390042	268	126
0	391535	269	136
0	392852	270	127
0	394409	271	136
0	395882	272	136
0	397178	273	129
0	398458	274	125
0	399755	275	140
0	401178	276	138
0	402762	277	143
0	404255	278	140
0	405886	279	160
0	407004	280	88
0	408512	281	147
0	409710	282	97
0	411432	283	177
0	413097	284	166
0	414653	285	151
0	416438	286	170
0	417912	287	145
0	419451	288	150
0	420784	289	124
0	422093	290	131
0	423128	291	94
0	424687	292	146
0	426337	293	171
0	427787	294	145
0	429334	295	144
0	431012	296	161
0	432441	297	118
0	434016	298	134
0	435488	299	133
0	436983	300	149
0	438403	301	129
0	440013	302	139
0	441216	303	106
0	442703	304	142
0	444188	305	128
0	445581	306	136
0	447030	307	150
0	448547	308	150
0	449826	309	118
0	451681	310	183
0	453166	311	142
0	454647	312	140
0	455856	313	116
0	457078	314	117
0	458283	315	112
0	459793	316	167
0	461337	317	139
0	462560	318	116
0	463523	319	92
0	465293	320	170
0	466988	321	160
0	468212	322	117
0	469544	323	129
0	471074	324	143
0	472339	325	114
0	473828	326	132
0	474865	327	72
0	476311	328	131
0	477880	329	148
0	479192	330	124
0	480871	331	154
0	482289	332	131
0	483807	333	163
0	485341	334	139
0	486716	335	140
0	488011	336	140
0	489391	337	119
0	490919	338	151
0	492054	339	102
0	493337	340	141
0	494892	341	156
0	496274	342	131
0	497953	343	176
0	499631	344	167
0	500878	345	110
0	502640	346	177
0	504558	347	177
0	506065	348	134
0	507602	349	152
0	508881	350	119
0	510157	351	111
0	511329	352	121
0	512466	353	116
0	514239	354	176
0	516052	355	176
0	517915	356	178
0	519414	357	162
0	520577	358	106
0	522380	359	170
0	524044	360	148
0	525540	361	153
0	527506	362	221
0	529089	363	176
0	530374	364	100
0	531449	365	98
0	532801	366	129
0	534332	367	162
0	535885	368	160
0	537389	369	177
0	538720	370	121
0	539965	371	114
0	541315	372	141
0	542696	373	142
0	544400	374	159
0	546008	375	149
0	547187	376	116
0	548733	377	137
0	549998	378	128
0	551379	379	124
0	553199	380	176
0	554823	381	145
0	556439	382	165
0	557910	383	124
0	559130	384	135
0	560521	385	138
0	561993	386	145
0	563517	387	165
0	564926	388	132
0	566327	389	116
0	567925	390	174
0	569422	391	156
0	570829	392	150
0	572199	393	127
0	573751	394	157
0	575242	395	156
0	576983	396	190
0	578318	397	122
0	579950	398	149
0	581016	399	107
0	582526	400	146
0	583783	401	128
0	585307	402	149
0	586860	403	144
0	588008	404	101
0	589320	405	125
0	590955	406	170
0	592190	407	128
0	593821	408	158
0	595375	409	137
0	596642	410	125
0	597981	411	134
0	599292	412	130
0	600952	413	135
0	602368	414	147
0	603991	415	150
0	605141	416	103
0	606602	417	138
0	608151	418	154
0	609681	419	149
0	611321	420	156
0	612706	421	150
0	614103	422	140
0	615424	423	112
0	617272	424	169
0	618959	425	170
0	620448	426	146
0	622086	427	145
0	623658	428	157
0	625190	429	157
0	627097	430	179
0	628346	431	110
0	629382	432	75
0	630824	433	139
0	632047	434	136
0	633626	435	140
0	634896	436	133
0	636424	437	133
0	637710	438	125
0	638895	439	110
0	640380	440	135
0	641709	441	120
0	643139	442	147
0	644577	443	149
0	645955	444	133
0	647256	445	124
0	648830	446	157
0	650649	447	178
0	652229	448	145
0	653319	449	99
0	654805	450	140
0	656223	451	143
0	657512	452	110
0	659000	453	139
0	660333	454	112
0	661735	455	131
0	663198	456	138
0	664862	457	149
0	666411	458	164
0	667844	459	152
0	669591	460	169
0	671126	461	166
0	672238	462	85
0	673546	463	129
0	674907	464	136
0	676166	465	126
0	677428	466	131
0	678775	467	120
0	680250	468	136
0	681901	469	162
0	683351	470	150
0	684855	471	151
0	686841	472	203
0	688469	473	133
0	689976	474	154
0	691493	475	146
0	692808	476	126
0	694139	477	134
0	695596	478	134
0	696996	479	119
0	698178	480	98
0	699384	481	127
0	700988	482	169
0	702240	483	103
0	703670	484	143
0	705161	485	138
0	706532	486	118
0	707952	487	139
0	709594	488	143
0	711034	489	131
0	712998	490	182
0	714501	491	150
0	716081	492	157
0	717398	493	120
0	718805	494	136
0	720492	495	160
0	721998	496	153
0	723346	497	121
0	724726	498	123
0	726256	499	147
0	727708	500	142
0	728867	501	100
0	730454	502	148
0	731930	503	135
0	732885	504	94
0	734138	505	132
0	735644	506	139
0	737500	507	169
0	739226	508	157
0	740735	509	132
0	741924	510	135
0	743522	511	157
0	744886	512	145
0	746405	513	128
0	748352	514	196
0	750030	515	177
0	751661	516	160
0	753001	517	129
0	754550	518	136
0	756079	519	150
0	757697	520	144
0	759023	521	117
0	760419	522	143
0	761594	523	122
0	763064	524	119
0	764295	525	98
0	765711	526	121
0	767078	527	132
0	768736	528	155
0	770098	529	121
0	771245	530	101
0	772881	531	157
0	774327	532	137
0	775995	533	161
0	777742	534	168
0	779591	535	178
0	780882	536	128
0	782011	537	104
0	783381	538	131
0	784889	539	141
0	786151	540	118
0	787496	541	116
0	789071	542	166
0	790920	543	164
0	792360	544	145
0	793895	545	142
0	795343	546	149
0	796774	547	134
0	798045	548	130
0	799967	549	199
0	801581	550	154
0	802769	551	99
0	804195	552	133
0	805608	553	120
0	807139	554	166
0	808662	555	146
0	810293	556	146
0	811682	557	140
0	813345	558	154
0	814638	559	126
0	816289	560	173
0	817583	561	113
0	818987	562	123
0	820526	563	144
0	822270	564	173
0	824040	565	195
0	825359	566	150
0	826910	567	162
0	828263	568	140
0	829794	569	160
0	831560	570	180
0	833045	571	148
0	834979	572	187
0	836481	573	139
0	837523	574	95
0	839080	575	152
0	840669	576	164
0	841936	577	126
0	843366	578	145
0	844848	579	137
0	846143	580	109
0	847924	581	160
0	849551	582	158
0	850543	583	101
0	851973	584	125
0	853413	585	129
0	854919	586	157
0	856075	587	105
0	857702	588	142
0	859064	589	129
0	860268	590	116
0	861783	591	148
0	863182	592	150
0	864754	593	141
0	866388	594	163
0	867731	595	154
0	869161	596	143
0	871099	597	199
0	872516	598	126
0	873678	599	125
0	875243	600	155
0	876772	601	112
0	878251	602	146
0	879284	603	100
0	880830	604	163
0	882025	605	122
0	883396	606	138
0	884864	607	141
0	886250	608	123
0	887665	609	122
0	889308	610	153
0	890910	611	147
0	892278	612	115
0	893663	613	134
0	895195	614	161
0	896549	615	131
0	897923	616	123
0	899199	617	129
0	900372	618	108
0	901721	619	136
0	903263	620	142
0	904746	621	146
0	906312	622	159
0	908017	623	182
0	909725	624	177
0	911207	625	141
0	912614	626	136
0	914341	627	178
0	915888	628	158
0	917379	629	146
0	919152	630	165
0	920449	631	116
0	922310	632	192
0	923954	633	151
0	925683	634	180
0	927135	635	135
0	928364	636	116
0	929843	637	134
0	931401	638	161
0	932932	639	150
0	934658	640	166
0	935953	641	120
0	937196	642	128
0	938666	643	131
0	940286	644	183
0	942018	645	183
0	943554	646	161
0	944992	647	117
0	946683	648	158
0	948458	649	172
0	949691	650	121
0	951200	651	148
0	952577	652	134
0	954214	653	154
0	955770	654	155
0	957001	655	138
0	958208	656	110
0	959881	657	166
0	961625	658	177
0	963070	659	142
0	964599	660	149
0	965919	661	121
0	967476	662	168
0	969059	663	162
0	970592	664	128
0	972103	665	154
0	973487	666	121
0	975010	667	142
0	976350	668	125
0	977990	669	165
0	979441	670	153
0	980975	671	155
0	982568	672	164
0	984413	673	152
0	985962	674	152
0	987424	675	147
0	988851	676	144
0	990016	677	118
0	991342	678	121
0	992577	679	108
0	994070	680	147
0	995728	681	157
0	997047	682	128
0	998438	683	140
0	999944	684	137
0	1001531	685	156
0	1002687	686	103
0	1004633	687	191
0	1006240	688	134
0	1007882	689	149
0	1009207	690	133
0	1010630	691	132
0	1012250	692	167
0	1014032	693	163
0	1015151	694	98
0	1016631	695	129
0	1018129	696	147
0	1019453	697	125
0	1020973	698	149
0	1022436	699	144
0	1023842	700	122
0	1025715	701	172
0	1026935	702	125
0	1028219	703	151
0	1029523	704	123
0	1030958	705	140
0	1032429	706	138
0	1033799	707	131
0	1035405	708	155
0	1036955	709	137
0	1038475	710	154
0	1039753	711	115
0	1041015	712	107
0	1042543	713	153
0	1044449	714	195
0	1045787	715	119
0	1047107	716	131
0	1048440	717	130
0	1049985	718	146
0	1051625	719	171
0	1052956	720	137
0	1054405	721	154
0	1056180	722	172
0	1057864	723	181
0	1059251	724	142
0	1060658	725	140
0	1062254	726	159
0	1063527	727	124
0	1064863	728	125
0	1065968	729	100
0	1067430	730	142
0	1069099	731	192
0	1070558	732	144
0	1072424	733	173
0	1073559	734	92
0	1074789	735	97
0	1076417	736	169
0	1078006	737	150
0	1079689	738	152
0	1080772	739	86
0	1082159	740	121
0	1083418	741	102
0	1084565	742	114
0	1085834	743	124
0	1087527	744	174
0	1089030	745	146
0	1090267	746	114
0	1091684	747	134
0	1092926	748	119
0	1094509	749	152
0	1095978	750	153
0	1097776	751	181
0	1099101	752	120
0	1100460	753	130
0	1102019	754	134
0	1103386	755	138
0	1104649	756	116
0	1106206	757	156
0	1106999	758	74
0	1108421	759	139
0	1109948	760	153
0	1111533	761	162
0	1112857	762	127
0	1114608	763	174
0	1115962	764	111
0	1117269	765	132
0	1118483	766	113
0	1120105	767	159
0	1121562	768	136
0	1123344	769	163
0	1124703	770	149
0	1126105	771	129
0	1127366	772	134
0	1128703	773	124
0	1130211	774	161
0	1131579	775	137
0	1133024	776	140
0	1134492	777	153
0	1135804	778	119
0	1137179	779	128
0	1138893	780	166
0	1140658	781	176
0	1141859	782	112
0	1143310	783	142
0	1144848	784	143
0	1146522	785	147
0	1147657	786	104
0	1149103	787	127
0	1150603	788	147
0	1151971	789	137
0	1153398	790	147
0	1155065	791	148
0	1156625	792	153
0	1158065	793	125
0	1159517	794	145
0	1160813	795	109
0	1162145	796	121
0	1163416	797	118
0	1165278	798	175
0	1166992	799	159
0	1168550	800	142
0	1170008	801	143
0	1171924	802	185
0	1173308	803	125
0	1174819	804	162
0	1176152	805	124
0	1177791	806	148
0	1179157	807	103
0	1180831	808	177
0	1182463	809	153
0	1183918	810	133
0	1185298	811	133
0	1186568	812	123
0	1188158	813	149
0	1189710	814	165
0	1191105	815	136
0	1192547	816	151
0	1194125	817	155
0	1195556	818	142
0	1197094	819	143
0	1198719	820	139
0	1200456	821	160
0	1202154	822	165
0	1203648	823	149
0	1204961	824	134
0	1206297	825	123
0	1207927	826	151
0	1209761	827	163
0	1211147	828	147
0	1212572	829	148
0	1214027	830	151
0	1215353	831	113
0	1217006	832	170
0	1218531	833	136
0	1220167	834	173
0	1221656	835	148
0	1223014	836	131
0	1224341	837	116
0	1226027	838	173
0	1227519	839	153
0	1229126	840	167
0	1230361	841	142
0	1231885	842	155
0	1233681	843	165
0	1235327	844	169
0	1236781	845	127
0	1238461	846	157
0	1239994	847	140
0	1241434	848	135
0	1243155	849	162
0	1244817	850	150
0	1246246	851	150
0	1247695	852	144
0	1249068	853	134
0	1250488	854	141
0	1251418	855	93
0	1252802	856	113
0	1254333	857	144
0	1255524	858	96
0	1256678	859	121
0	1258191	860	151
0	1259732	861	162
0	1261228	862	147
0	1262608	863	117
0	1264175	864	146
0	1265594	865	142
0	1267165	866	150
0	1268655	867	133
0	1270018	868	132
0	1271445	869	136
0	1272905	870	144
0	1274255	871	115
0	1275639	872	125
0	1277134	873	124
0	1278769	874	168
0	1280638	875	190
0	1282334	876	165
0	1283641	877	122
0	1285313	878	161
0	1286573	879	109
0	1288227	880	166
0	1289713	881	131
0	1291460	882	170
0	1293026	883	147
0	1294688	884	195
0	1296226	885	147
0	1297826	886	149
0	1299531	887	172
0	1301352	888	200
0	1302699	889	110
0	1304070	890	137
0	1305760	891	183
0	1307403	892	158
0	1308859	893	145
0	1310236	894	146
0	1311819	895	154
0	1312946	896	96
0	1314436	897	147
0	1315830	898	133
0	1317422	899	141
0	1318940	900	136
0	1320263	901	140
0	1321637	902	129
0	1323621	903	213
0	1324984	904	122
0	1326421	905	142
0	1327666	906	120
0	1329415	907	146
0	1330940	908	142
0	1332721	909	172
0	1333858	910	89
0	1335441	911	162
0	1336970	912	140
0	1338116	913	103
0	1339464	914	133
0	1340700	915	113
0	1342407	916	180
0	1344048	917	176
0	1345478	918	141
0	1346705	919	118
0	1348529	920	168
0	1350163	921	171
0	1351837	922	165
0	1353159	923	117
0	1354641	924	131
0	1355760	925	116
0	1357144	926	111
0	1358364	927	115
0	1359429	928	88
0	1361033	929	155
0	1362791	930	186
0	1364453	931	153
0	1365950	932	134
0	1367286	933	131
0	1368817	934	144
0	1370094	935	112
0	1371546	936	139
0	1372953	937	148
0	1374196	938	94
0	1375282	939	107
0	1376511	940	111
0	1377978	941	142
0	1379423	942	140
0	1380839	943	135
0	1382055	944	99
0	1383517	945	119
0	1384709	946	121
0	1385967	947	121
0	1387484	948	156
0	1389073	949	178
0	1390320	950	121
0	1391549	951	108
0	1393098	952	144
0	1394673	953	158
0	1396094	954	140
0	1397676	955	151
0	1399180	956	151
0	1400757	957	148
0	1402079	958	133
0	1403365	959	131
0	1404526	960	111
0	1405892	961	151
0	1407368	962	145
0	1408832	963	133
0	1410189	964	148
0	1411789	965	163
0	1413524	966	164
0	1414906	967	137
0	1416516	968	161
0	1417878	969	117
0	1419225	970	119
0	1420441	971	121
0	1421956	972	140
0	1423126	973	89
0	1424345	974	96
0	1425850	975	144
0	1427355	976	138
0	1428844	977	148
0	1430423	978	156
0	1431832	979	130
0	1433351	980	157
0	1434926	981	156
0	1436287	982	130
0	1437601	983	133
0	1439099	984	153
0	1440295	985	127
0	1442159	986	195
0	1443510	987	132
0	1444780	988	117
0	1446314	989	141
0	1447881	990	157
0	1449395	991	139
0	1450814	992	124
0	1452294	993	141
0	1453478	994	113
0	1454932	995	139
0	1456075	996	106
0	1457685	997	151
0	1459400	998	160
0	1460911	999	128
0	1462374	1000	121
0	1463923	1001	162
0	1465313	1002	149
0	1466710	1003	132
0	1468368	1004	155
0	1469852	1005	165
0	1471285	1006	132
0	1472699	1007	151
0	1474697	1008	199
0	1476203	1009	151
0	1477539	1010	132
0	1478801	1011	111
0	1480351	1012	143
0	1481745	1013	143
0	1483248	1014	134
0	1484642	1015	115
0	1486057	1016	138
0	1487559	1017	159
0	1489039	1018	113
0	1490292	1019	130
0	1491522	1020	100
0	1493086	1021	159
0	1494837	1022	168
0	1496421	1023	141
0	1497972	1024	138
0	1499236	1025	129
0	1500640	1026	137
0	1501893	1027	124
0	1503437	1028	153
0	1505251	1029	195
0	1506821	1030	140
0	1508407	1031	165
0	1509574	1032	122
0	1510646	1033	113
0	1512274	1034	159
0	1513860	1035	133
0	1515691	1036	176
0	1517086	1037	132
0	1518386	1038	109
0	1520218	1039	181
0	1521695	1040	123
0	1523008	1041	116
0	1524859	1042	202
0	1526797	1043	207
0	1528221	1044	125
0	1529841	1045	169
0	1531576	1046	158
0	1532742	1047	105
0	1534231	1048	138
0	1535533	1049	111
0	1537089	1050	160
0	1538423	1051	125
0	1539881	1052	155
0	1541308	1053	120
0	1542604	1054	129
0	1544249	1055	152
0	1545859	1056	169
0	1547324	1057	140
0	1548772	1058	129
0	1550407	1059	158
0	1551772	1060	117
0	1553172	1061	131
0	1554728	1062	155
0	1556388	1063	163
0	1557845	1064	136
0	1559324	1065	164
0	1561052	1066	173
0	1562769	1067	160
0	1564040	1068	124
0	1565442	1069	123
0	1566885	1070	127
0	1568173	1071	149
0	1569632	1072	124
0	1571020	1073	149
0	1572479	1074	138
0	1573693	1075	117
0	1575242	1076	152
0	1576662	1077	149
0	1578119	1078	136
0	1579422	1079	120
0	1581041	1080	143
0	1582817	1081	185
0	1584193	1082	125
0	1585789	1083	177
0	1586900	1084	106
0	1588574	1085	163
0	1590085	1086	138
0	1591388	1087	110
0	1592675	1088	106
0	1594755	1089	219
0	1595677	1090	80
0	1597134	1091	146
0	1598453	1092	140
0	1600124	1093	162
0	1601808	1094	179
0	1603739	1095	220
0	1605681	1096	179
0	1607142	1097	116
0	1608352	1098	111
0	1609569	1099	108
0	1610731	1100	110
0	1612025	1101	127
0	1613568	1102	154
0	1614655	1103	94
0	1616075	1104	135
0	1617511	1105	147
0	1618884	1106	132
0	1620407	1107	158
0	1621568	1108	120
0	1623216	1109	177
0	1624616	1110	136
0	1626025	1111	138
0	1627734	1112	186
0	1629280	1113	117
0	1630836	1114	163
0	1632261	1115	140
0	1633543	1116	103
0	1635768	1117	236
0	1637313	1118	144
0	1639096	1119	198
0	1640471	1120	119
0	1641576	1121	110
0	1643005	1122	148
0	1644521	1123	135
0	1646324	1124	164
0	1647926	1125	175
0	1649531	1126	178
0	1650925	1127	141
0	1652276	1128	128
0	1653726	1129	143
0	1655459	1130	161
0	1656876	1131	152
0	1658326	1132	137
0	1659947	1133	150
0	1661709	1134	163
0	1663177	1135	149
0	1664721	1136	135
0	1666105	1137	131
0	1667785	1138	177
0	1669421	1139	153
0	1670722	1140	127
0	1672395	1141	160
0	1673925	1142	131
0	1675697	1143	165
0	1677112	1144	110
0	1678520	1145	117
0	1679800	1146	117
0	1681045	1147	112
0	1682674	1148	146
0	1684101	1149	132
0	1685653	1150	136
0	1687128	1151	148
0	1688104	1152	103
0	1689677	1153	150
0	1691022	1154	122
0	1692493	1155	156
0	1694037	1156	143
0	1696046	1157	234
0	1697568	1158	149
0	1698862	1159	139
0	1699912	1160	94
0	1701487	1161	166
0	1702678	1162	120
0	1704049	1163	136
0	1705430	1164	106
0	1706705	1165	126
0	1708149	1166	147
0	1709853	1167	145
0	1711075	1168	127
0	1712427	1169	137
0	1713765	1170	124
0	1715105	1171	113
0	1716577	1172	131
0	1718075	1173	143
0	1719370	1174	106
0	1720803	1175	136
0	1722378	1176	158
0	1723969	1177	138
0	1725485	1178	143
0	1726709	1179	109
0	1728223	1180	144
0	1729827	1181	157
0	1731242	1182	146
0	1732577	1183	126
0	1734234	1184	164
0	1735399	1185	108
0	1736717	1186	115
0	1738260	1187	152
0	1739546	1188	111
0	1741254	1189	139
0	1742784	1190	130
0	1744303	1191	132
0	1745915	1192	143
0	1747586	1193	168
0	1749065	1194	148
0	1750746	1195	154
0	1752242	1196	131
0	1753869	1197	160
0	1754948	1198	92
0	1756502	1199	149
0	1757780	1200	118
0	1759264	1201	143
0	1760697	1202	116
0	1762181	1203	157
0	1763572	1204	126
0	1764839	1205	114
0	1765984	1206	108
0	1767440	1207	145
0	1768804	1208	125
0	1770335	1209	142
0	1771809	1210	154
0	1773441	1211	149
0	1775286	1212	192
0	1777258	1213	179
0	1778687	1214	132
0	1779743	1215	119
0	1780920	1216	124
0	1782370	1217	147
0	1783715	1218	140
0	1785150	1219	126
0	1786304	1220	112
0	1787943	1221	162
0	1789510	1222	162
0	1790931	1223	142
0	1792195	1224	99
0	1793378	1225	110
0	1794793	1226	132
0	1796164	1227	134
0	1797952	1228	181
0	1799117	1229	106
0	1800296	1230	115
0	1801678	1231	119
0	1803319	1232	164
0	1804908	1233	172
0	1806471	1234	146
0	1807504	1235	88
0	1808774	1236	115
0	1810308	1237	149
0	1812015	1238	154
0	1813490	1239	144
0	1814782	1240	116
0	1816350	1241	149
0	1817921	1242	142
0	1819307	1243	125
0	1820550	1244	106
0	1822072	1245	141
0	1823235	1246	120
0	1824769	1247	143
0	1825945	1248	111
0	1827161	1249	111
0	1828654	1250	153
0	1830189	1251	134
0	1831927	1252	157
0	1833360	1253	142
0	1834882	1254	163
0	1836142	1255	113
0	1837756	1256	179
0	1839162	1257	139
0	1840447	1258	116
0	1842083	1259	157
0	1843694	1260	159
0	1845206	1261	155
0	1846861	1262	174
0	1848601	1263	177
0	1850081	1264	135
0	1851733	1265	163
0	1853164	1266	128
0	1854326	1267	109
0	1855484	1268	111
0	1856937	1269	144
0	1858224	1270	109
0	1859447	1271	110
0	1860881	1272	115
0	1862463	1273	149
0	1864067	1274	149
0	1865679	1275	153
0	1867283	1276	149
0	1868379	1277	111
0	1869959	1278	165
0	1871402	1279	122
0	1872531	1280	103
0	1873972	1281	142
0	1875370	1282	125
0	1876911	1283	146
0	1878258	1284	120
0	1879502	1285	117
0	1880877	1286	130
0	1882471	1287	139
0	1883950	1288	130
0	1885407	1289	152
0	1886896	1290	163
0	1888480	1291	161
0	1889749	1292	114
0	1891331	1293	149
0	1892508	1294	104
0	1893678	1295	113
0	1895116	1296	153
0	1896329	1297	124
0	1897711	1298	129
0	1898896	1299	100
0	1900245	1300	137
0	1901815	1301	163
0	1903027	1302	113
0	1904685	1303	167
0	1906084	1304	142
0	1907779	1305	160
0	1909056	1306	112
0	1910218	1307	101
0	1911679	1308	134
0	1913672	1309	218
0	1915283	1310	163
0	1917095	1311	191
0	1918252	1312	104
0	1919662	1313	145
0	1921223	1314	130
0	1922718	1315	140
0	1924047	1316	130
0	1925328	1317	112
0	1926673	1318	116
0	1928286	1319	146
0	1929756	1320	120
0	1931215	1321	144
0	1932589	1322	137
0	1933998	1323	128
0	1935560	1324	143
0	1937109	1325	122
0	1938287	1326	117
0	1939797	1327	159
0	1941402	1328	170
0	1942905	1329	142
0	1944443	1330	140
0	1945784	1331	126
0	1947159	1332	128
0	1948442	1333	118
0	1949633	1334	104
0	1950926	1335	120
0	1952518	1336	171
0	1953979	1337	144
0	1955601	1338	147
0	1957150	1339	158
0	1958961	1340	187
0	1960467	1341	141
0	1962016	1342	146
0	1963364	1343	121
0	1964872	1344	141
0	1966412	1345	149
0	1967994	1346	155
0	1969339	1347	136
0	1970834	1348	136
0	1972015	1349	102
0	1973409	1350	154
0	1974997	1351	165
0	1976639	1352	141
0	1978081	1353	129
0	1979602	1354	134
0	1981166	1355	163
0	1982436	1356	115
0	1983917	1357	132
0	1985632	1358	162
0	1987333	1359	150
0	1988566	1360	109
0	1989849	1361	116
0	1991522	1362	154
0	1993089	1363	146
0	1994315	1364	109
0	1995819	1365	157
0	1997364	1366	150
0	1999030	1367	175
0	2000552	1368	143
0	2001848	1369	117
0	2003441	1370	163
0	2004936	1371	138
0	2006202	1372	123
0	2007678	1373	125
0	2009151	1374	124
0	2010719	1375	155
0	2012147	1376	135
0	2013367	1377	105
0	2014462	1378	94
0	2015893	1379	142
0	2017645	1380	192
0	2019347	1381	177
0	2020803	1382	137
0	2022463	1383	171
0	2023857	1384	121
0	2025380	1385	144
0	2026663	1386	118
0	2027955	1387	121
0	2029167	1388	117
0	2030432	1389	104
0	2031850	1390	146
0	2033580	1391	171
0	2034590	1392	87
0	2036058	1393	151
0	2037311	1394	114
0	2039025	1395	181
0	2040550	1396	140
0	2041909	1397	140
0	2043449	1398	151
0	2044869	1399	143
0	2046552	1400	159
0	2048271	1401	180
0	2049488	1402	104
0	2050996	1403	145
0	2052164	1404	137
0	2053550	1405	121
0	2054735	1406	110
0	2056710	1407	200
0	2058631	1408	176
0	2060076	1409	138
0	2061255	1410	109
0	2062746	1411	162
0	2064166	1412	129
0	2065541	1413	130
0	2067208	1414	170
0	2068889	1415	184
0	2070111	1416	123
0	2071783	1417	169
0	2073210	1418	150
0	2074570	1419	141
0	2075970	1420	128
0	2077474	1421	149
0	2079098	1422	153
0	2080419	1423	120
0	2081988	1424	154
0	2083223	1425	122
0	2084720	1426	122
0	2086221	1427	156
0	2087364	1428	94
0	2088823	1429	138
0	2089827	1430	88
0	2091173	1431	147
0	2092527	1432	135
0	2093623	1433	99
0	2095226	1434	152
0	2096569	1435	130
0	2098212	1436	146
0	2099706	1437	161
0	2101248	1438	149
0	2103057	1439	174
0	2104589	1440	134
0	2106102	1441	140
0	2107422	1442	113
0	2109140	1443	169
0	2110465	1444	132
0	2112027	1445	161
0	2113440	1446	128
0	2114853	1447	128
0	2116283	1448	125
0	2117664	1449	154
0	2118946	1450	108
0	2120597	1451	182
0	2122089	1452	145
0	2124114	1453	200
0	2125423	1454	108
0	2126709	1455	137
0	2128349	1456	149
0	2129912	1457	144
0	2131658	1458	161
0	2132835	1459	100
0	2133969	1460	86
0	2135116	1461	104
0	2136632	1462	151
0	2138059	1463	144
0	2139568	1464	150
0	2140822	1465	119
0	2142160	1466	135
0	2143835	1467	142
0	2145293	1468	139
0	2146940	1469	138
0	2148299	1470	125
0	2149499	1471	107
0	2150822	1472	110
0	2152396	1473	169
0	2153769	1474	136
0	2155514	1475	170
0	2156880	1476	113
0	2158200	1477	113
0	2159561	1478	128
0	2160866	1479	108
0	2162411	1480	143
0	2163976	1481	156
0	2165220	1482	125
0	2166335	1483	114
0	2168104	1484	172
0	2169855	1485	182
0	2171350	1486	146
0	2172607	1487	130
0	2173889	1488	117
0	2175410	1489	152
0	2176778	1490	144
0	2178361	1491	158
0	2179937	1492	169
0	2181086	1493	96
0	2182288	1494	111
0	2183723	1495	142
0	2185245	1496	165
0	2186638	1497	134
0	2187902	1498	125
0	2189222	1499	135
0	2190514	1500	122
0	2191857	1501	128
0	2193459	1502	159
0	2194924	1503	138
0	2196407	1504	142
0	2197763	1505	125
0	2199191	1506	147
0	2200564	1507	132
0	2201766	1508	113
0	2203262	1509	161
0	2204555	1510	131
0	2206144	1511	160
0	2207413	1512	112
0	2208501	1513	109
0	2209834	1514	124
0	2211429	1515	190
0	2212992	1516	146
0	2214563	1517	152
0	2216431	1518	195
0	2217958	1519	158
0	2219294	1520	116
0	2220722	1521	149
0	2222168	1522	139
0	2223465	1523	120
0	2224899	1524	143
0	2226455	1525	137
0	2227912	1526	132
0	2229359	1527	120
0	2231099	1528	173
0	2232289	1529	97
0	2233591	1530	122
0	2235104	1531	144
0	2236813	1532	166
0	2238162	1533	110
0	2239408	1534	139
0	2240862	1535	135
0	2242347	1536	146
0	2244140	1537	172
0	2245540	1538	115
0	2246844	1539	131
0	2248225	1540	141
0	2249650	1541	122
0	2251110	1542	147
0	2252340	1543	119
0	2253673	1544	110
0	2255114	1545	128
0	2256336	1546	113
0	2258057	1547	138
0	2259777	1548	163
0	2261219	1549	131
0	2262634	1550	141
0	2263783	1551	104
0	2265371	1552	157
0	2266845	1553	137
0	2267949	1554	105
0	2269436	1555	132
0	2270987	1556	142
0	2272481	1557	147
0	2273715	1558	95
0	2275412	1559	156
0	2277144	1560	168
0	2278555	1561	130
0	2279675	1562	117
0	2281100	1563	124
0	2282595	1564	158
0	2283831	1565	119
0	2285184	1566	112
0	2286476	1567	127
0	2287954	1568	143
0	2289344	1569	137
0	2290563	1570	107
0	2292047	1571	141
0	2292910	1572	86
0	2294648	1573	175
0	2296004	1574	137
0	2297720	1575	169
0	2299523	1576	188
0	2301012	1577	122
0	2302450	1578	133
0	2304180	1579	175
0	2305604	1580	122
0	2307081	1581	144
0	2308407	1582	125
0	2309897	1583	137
0	2311053	1584	95
0	2312273	1585	111
0	2313851	1586	153
0	2315488	1587	170
0	2317122	1588	159
0	2318550	1589	139
0	2320139	1590	157
0	2321668	1591	160
0	2322804	1592	101
0	2324327	1593	162
0	2325867	1594	157
0	2327091	1595	123
0	2328882	1596	172
0	2330132	1597	107
0	2331905	1598	186
0	2333477	1599	157
0	2335029	1600	170
0	2336291	1601	131
0	2337551	1602	117
0	2338931	1603	129
0	2340424	1604	144
0	2341841	1605	140
0	2343252	1606	140
0	2344700	1607	143
0	2346254	1608	145
0	2347690	1609	139
0	2349368	1610	164
0	2350651	1611	112
0	2351989	1612	115
0	2353328	1613	114
0	2354816	1614	153
0	2356331	1615	126