version 3
run SimulationTime-362-20240108-13:23:42-13132
attr configname SimulationTime
attr datetime 20240108-13:23:42
attr datetimef 20240108-132342
attr experiment SimulationTime
attr inifile omnetpp.ini
attr iterationvars ""
attr iterationvarsd ""
attr iterationvarsf ""
attr measurement ""
attr network System
attr processid 13132
attr repetition 362
attr replication #362
attr resultdir results
attr runnumber 362
attr seedset 362
config **.cpu.rate 1000
config **.hd.rateProcessing 250
config **.webServer.web_server_rate 100
config **.p1 0.35
config **.p2 0.40
config network System
config num-rngs 4
config **.cpu.rng-0 0
config **.cpu.rng-1 1
config **.hd.rng-0 2
config **.webServer.rng-0 3
config repeat 500
config seed-set 362
config sim-time-limit 10000s
config **.client.numClients 40

vector 0 System.server.cpu requestCounterStat:vector ETV
attr recordingmode vector
attr source requestCounter
vector 1 System.server.hd utilizationHdStat:vector ETV
attr recordingmode vector
attr source utilizationHd
vector 2 System.server.cpu utilizationCpuStat:vector ETV
attr recordingmode vector
attr source utilizationCpu
vector 3 System.webServer utilizationWsStat:vector ETV
attr recordingmode vector
attr source utilizationWs
0	2222	1	219
0	3730	2	143
0	5125	3	116
0	6660	4	140
0	8169	5	132
0	9979	6	163
0	11698	7	172
0	13417	8	178
0	15238	9	196
0	16677	10	131
0	18279	11	155
0	19912	12	154
0	21377	13	144
0	22630	14	126
0	23868	15	117
0	25330	16	139
0	26554	17	109
0	27961	18	120
0	29552	19	148
0	30780	20	126
0	31942	21	109
0	33315	22	136
0	34841	23	137
0	36404	24	144
0	37908	25	153
0	39552	26	141
0	40635	27	98
0	42081	28	131
0	43693	29	151
0	44822	30	95
0	46149	31	114
0	47587	32	131
0	49292	33	180
0	50841	34	138
0	52314	35	148
0	53812	36	129
0	55164	37	115
0	56485	38	128
0	58034	39	150
0	59348	40	132
0	60807	41	128
0	62375	42	159
0	64050	43	142
0	65495	44	136
0	67129	45	135
0	68395	46	119
0	69996	47	148
0	71220	48	111
0	72871	49	160
0	74127	50	128
0	75348	51	104
0	76975	52	160
0	78401	53	147
0	79628	54	106
0	81253	55	152
0	82894	56	146
0	84405	57	150
0	85598	58	88
0	87280	59	167
0	88710	60	148
0	90301	61	164
0	91823	62	155
0	93185	63	133
0	94775	64	155
0	95977	65	109
0	97330	66	134
0	98646	67	123
0	99851	68	116
0	101168	69	138
0	102484	70	118
0	103975	71	142
0	105839	72	187
0	107162	73	116
0	108650	74	141
0	110429	75	162
0	111789	76	117
0	113336	77	140
0	114845	78	138
0	115938	79	92
0	117156	80	106
0	118384	81	113
0	119583	82	102
0	121141	83	147
0	122632	84	144
0	124172	85	151
0	125653	86	132
0	127196	87	144
0	128987	88	176
0	130437	89	147
0	131899	90	142
0	133649	91	193
0	135171	92	153
0	136403	93	113
0	138019	94	157
0	139374	95	128
0	141012	96	157
0	142429	97	140
0	143857	98	145
0	145142	99	116
0	146424	100	128
0	148056	101	167
0	149829	102	180
0	151501	103	169
0	152750	104	128
0	154047	105	100
0	155509	106	135
0	157075	107	159
0	158478	108	126
0	160166	109	171
0	161629	110	123
0	163117	111	133
0	164746	112	168
0	166121	113	128
0	167738	114	156
0	169211	115	148
0	170429	116	109
0	171727	117	121
0	173404	118	190
0	174630	119	131
0	175801	120	115
0	177030	121	118
0	178608	122	147
0	179907	123	114
0	181303	124	125
0	182620	125	132
0	184125	126	146
0	185590	127	146
0	187226	128	157
0	188809	129	158
0	190646	130	199
0	192206	131	165
0	193857	132	170
0	195257	133	137
0	196750	134	120
0	198205	135	122
0	199678	136	144
0	201189	137	138
0	202980	138	170
0	204246	139	109
0	206028	140	160
0	207614	141	157
0	208916	142	121
0	210225	143	100
0	211500	144	122
0	213145	145	150
0	214409	146	129
0	215762	147	130
0	217220	148	137
0	218704	149	131
0	220174	150	144
0	221598	151	139
0	222952	152	117
0	224565	153	166
0	226269	154	173
0	227882	155	184
0	229495	156	150
0	230850	157	124
0	232236	158	135
0	233677	159	148
0	235288	160	165
0	236960	161	149
0	238433	162	136
0	239788	163	122
0	241368	164	149
0	242853	165	156
0	244388	166	130
0	245729	167	120
0	247035	168	123
0	248316	169	140
0	249435	170	93
0	250974	171	156
0	252558	172	153
0	254052	173	143
0	255471	174	140
0	257035	175	147
0	258598	176	168
0	260203	177	148
0	261711	178	145
0	263568	179	180
0	265063	180	133
0	266581	181	143
0	268036	182	134
0	269419	183	130
0	271000	184	152
0	272623	185	138
0	274464	186	194
0	275484	187	99
0	276686	188	121
0	277928	189	121
0	279364	190	172
0	281006	191	139
0	282388	192	137
0	283616	193	111
0	284871	194	116
0	286435	195	139
0	287775	196	121
0	289380	197	172
0	290714	198	123
0	291952	199	121
0	293480	200	152
0	295254	201	171
0	296762	202	151
0	298502	203	167
0	299821	204	124
0	301185	205	105
0	302856	206	158
0	304126	207	119
0	305388	208	119
0	307155	209	170
0	308846	210	151
0	310365	211	148
0	312208	212	186
0	313669	213	134
0	315082	214	118
0	316254	215	129
0	317761	216	126
0	319124	217	114
0	320560	218	137
0	322175	219	160
0	323609	220	146
0	325236	221	164
0	326368	222	79
0	327857	223	144
0	329651	224	171
0	331186	225	156
0	332826	226	167
0	333972	227	117
0	335313	228	120
0	336728	229	132
0	338203	230	129
0	339778	231	156
0	341110	232	115
0	342390	233	125
0	343805	234	136
0	345522	235	166
0	347020	236	147
0	348796	237	171
0	350229	238	138
0	351982	239	150
0	352942	240	106
0	354460	241	137
0	356065	242	164
0	357340	243	118
0	358772	244	141
0	360203	245	142
0	361786	246	142
0	362936	247	107
0	364198	248	133
0	365744	249	149
0	367438	250	176
0	368611	251	106
0	369637	252	95
0	370963	253	121
0	372361	254	135
0	373947	255	165
0	375514	256	172
0	377124	257	185
0	378431	258	122
0	379876	259	140
0	381392	260	156
0	383016	261	145
0	384488	262	143
0	385845	263	138
0	387644	264	162
0	389221	265	154
0	390944	266	172
0	392555	267	162
0	393732	268	110
0	395169	269	120
0	396495	270	114
0	397844	271	132
0	399561	272	172
0	401090	273	154
0	402586	274	157
0	403935	275	124
0	405187	276	117
0	406983	277	173
0	408559	278	147
0	409996	279	146
0	411969	280	183
0	413562	281	156
0	414751	282	100
0	416160	283	144
0	417723	284	146
0	419517	285	171
0	421030	286	144
0	422524	287	135
0	423884	288	109
0	425750	289	183
0	427029	290	129
0	428464	291	138
0	429960	292	161
0	431569	293	176
0	432971	294	139
0	434560	295	148
0	436182	296	145
0	437377	297	108
0	438833	298	151
0	440719	299	173
0	442539	300	176
0	443999	301	145
0	445622	302	160
0	447037	303	114
0	448693	304	169
0	450048	305	130
0	451426	306	141
0	452718	307	123
0	454224	308	157
0	455740	309	151
0	457232	310	138
0	458679	311	126
0	459934	312	120
0	461376	313	155
0	462658	314	137
0	463824	315	107
0	465380	316	161
0	466548	317	111
0	468462	318	201
0	470350	319	207
0	471541	320	115
0	472825	321	127
0	474303	322	137
0	476026	323	176
0	477407	324	138
0	478993	325	155
0	480502	326	152
0	481919	327	130
0	483554	328	146
0	484825	329	124
0	486447	330	152
0	488159	331	175
0	489646	332	140
0	491159	333	144
0	492750	334	148
0	494133	335	138
0	495762	336	146
0	497230	337	143
0	498609	338	122
0	500251	339	167
0	501894	340	157
0	503336	341	133
0	504679	342	148
0	506022	343	120
0	507605	344	174
0	509155	345	149
0	510551	346	129
0	512139	347	169
0	513580	348	132
0	514963	349	126
0	516275	350	136
0	517815	351	161
0	519529	352	183
0	520949	353	141
0	522337	354	137
0	523739	355	143
0	525278	356	146
0	526664	357	119
0	528117	358	140
0	529653	359	141
0	531333	360	160
0	532576	361	110
0	533857	362	112
0	535268	363	134
0	536797	364	128
0	538485	365	165
0	540263	366	179
0	541568	367	136
0	543189	368	172
0	544193	369	95
0	545574	370	121
0	546947	371	126
0	548335	372	117
0	549798	373	162
0	551230	374	135
0	552646	375	119
0	553950	376	115
0	554754	377	69
0	556111	378	152
0	557533	379	131
0	558677	380	118
0	560099	381	135
0	561727	382	151
0	563160	383	136
0	564744	384	169
0	566218	385	131
0	567688	386	133
0	569184	387	135
0	570824	388	153
0	571946	389	95
0	573187	390	105
0	574651	391	121
0	576129	392	149
0	577599	393	143
0	578761	394	115
0	580405	395	171
0	581928	396	128
0	583426	397	143
0	584907	398	132
0	586521	399	163
0	588052	400	153
0	589314	401	113
0	590876	402	161
0	592363	403	144
0	593603	404	125
0	595238	405	180
0	596645	406	128
0	598015	407	137
0	599554	408	174
0	600983	409	140
0	602690	410	179
0	604181	411	134
0	605404	412	128
0	606894	413	147
0	608383	414	158
0	609884	415	142
0	611211	416	124
0	612540	417	110
0	614200	418	153
0	615832	419	165
0	617526	420	156
0	619303	421	176
0	620570	422	128
0	622161	423	152
0	623642	424	130
0	625116	425	139
0	626588	426	129
0	628248	427	195
0	629689	428	146
0	630823	429	113
0	632256	430	133
0	633517	431	108
0	635114	432	158
0	636106	433	95
0	637600	434	139
0	639074	435	141
0	640498	436	147
0	641881	437	150
0	643637	438	157
0	644851	439	131
0	646063	440	104
0	647377	441	131
0	648634	442	104
0	649951	443	120
0	651280	444	132
0	652916	445	155
0	654434	446	157
0	656049	447	148
0	657516	448	124
0	658681	449	98
0	659935	450	120
0	661435	451	139
0	662685	452	117
0	663864	453	106
0	665407	454	154
0	666883	455	157
0	668361	456	135
0	670057	457	157
0	671277	458	113
0	672449	459	105
0	673970	460	155
0	675488	461	137
0	676831	462	136
0	678132	463	120
0	679959	464	172
0	681338	465	134
0	682571	466	110
0	683993	467	155
0	685332	468	134
0	686613	469	132
0	688164	470	145
0	689696	471	153
0	690991	472	118
0	692599	473	149
0	694055	474	121
0	695637	475	155
0	696739	476	91
0	698227	477	113
0	699409	478	107
0	701194	479	156
0	702571	480	115
0	704045	481	143
0	705406	482	120
0	707002	483	133
0	708277	484	120
0	709791	485	145
0	711113	486	127
0	712734	487	138
0	714125	488	136
0	715601	489	145
0	716623	490	92
0	717977	491	139
0	719642	492	142
0	721103	493	158
0	722964	494	174
0	724624	495	169
0	726095	496	142
0	727330	497	110
0	728785	498	130
0	730141	499	111
0	731652	500	163
0	732924	501	121
0	734386	502	141
0	735933	503	150
0	737387	504	157
0	738893	505	121
0	740627	506	197
0	741844	507	132
0	742947	508	84
0	744466	509	154
0	746243	510	181
0	747546	511	114
0	748882	512	133
0	750309	513	136
0	751738	514	134
0	752951	515	116
0	754445	516	139
0	755932	517	124
0	757416	518	143
0	758883	519	142
0	760014	520	87
0	761190	521	95
0	762664	522	129
0	764224	523	135
0	765733	524	136
0	767177	525	137
0	768747	526	151
0	770015	527	127
0	771445	528	135
0	773151	529	153
0	774667	530	148
0	776330	531	194
0	777809	532	148
0	779491	533	181
0	781030	534	170
0	782077	535	106
0	783559	536	151
0	784923	537	137
0	786349	538	147
0	787728	539	118
0	789304	540	156
0	790744	541	141
0	792055	542	110
0	793649	543	163
0	795421	544	169
0	796556	545	100
0	797917	546	126
0	799514	547	160
0	800838	548	129
0	802336	549	143
0	803999	550	169
0	805594	551	150
0	807064	552	155
0	808479	553	136
0	810208	554	160
0	811984	555	177
0	813254	556	145
0	814423	557	100
0	815651	558	113
0	817141	559	133
0	818413	560	114
0	820127	561	175
0	821531	562	127
0	823060	563	146
0	824555	564	138
0	825955	565	129
0	827507	566	145
0	828988	567	148
0	830493	568	158
0	832002	569	140
0	833633	570	157
0	835171	571	157
0	836854	572	158
0	838597	573	162
0	840317	574	163
0	841623	575	129
0	842793	576	99
0	844256	577	128
0	846070	578	165
0	847735	579	148
0	849524	580	181
0	850998	581	127
0	852258	582	119
0	853806	583	157
0	855253	584	146
0	857015	585	181
0	858467	586	127
0	860314	587	166
0	861899	588	144
0	862872	589	94
0	864077	590	101
0	865405	591	117
0	866895	592	151
0	868189	593	119
0	869522	594	132
0	871242	595	193
0	872585	596	128
0	873994	597	126
0	875423	598	136
0	876698	599	130
0	877934	600	124
0	879282	601	133
0	880671	602	124
0	881958	603	116
0	883491	604	150
0	884864	605	120
0	886331	606	120
0	887614	607	114
0	889017	608	128
0	890416	609	146
0	891589	610	97
0	892865	611	123
0	894252	612	122
0	895296	613	109
0	896962	614	149
0	898581	615	154
0	900369	616	161
0	901889	617	143
0	903766	618	186
0	905398	619	165
0	906743	620	141
0	908241	621	151
0	909990	622	170
0	911393	623	128
0	912801	624	129
0	913914	625	110
0	915527	626	154
0	916705	627	121
0	918218	628	138
0	919841	629	164
0	921238	630	129
0	922637	631	146
0	924244	632	156
0	925840	633	143
0	927678	634	183
0	929102	635	143
0	930374	636	113
0	932204	637	185
0	933496	638	125
0	934668	639	117
0	936224	640	144
0	937564	641	105
0	938789	642	114
0	940335	643	141
0	941671	644	123
0	943020	645	122
0	944616	646	147
0	945686	647	81
0	947024	648	127
0	948463	649	130
0	950043	650	142
0	951483	651	139
0	952718	652	118
0	954282	653	163
0	956307	654	200
0	958057	655	165
0	959472	656	150
0	961368	657	193
0	962669	658	116
0	964206	659	154
0	965283	660	89
0	966505	661	107
0	967855	662	99
0	969332	663	142
0	970916	664	143
0	972302	665	119
0	973714	666	125
0	975124	667	115
0	976460	668	133
0	977656	669	109
0	978787	670	93
0	980371	671	157
0	981920	672	146
0	983521	673	142
0	984963	674	123
0	986379	675	129
0	987597	676	115
0	989024	677	146
0	990256	678	109
0	991632	679	137
0	993243	680	149
0	994954	681	168
0	996251	682	122
0	997564	683	126
0	999117	684	170
0	1000592	685	152
0	1001824	686	139
0	1003559	687	176
0	1004888	688	126
0	1006456	689	145
0	1007685	690	119
0	1009379	691	165
0	1010836	692	130
0	1011986	693	103
0	1013478	694	141
0	1014980	695	143
0	1016230	696	107
0	1017592	697	123
0	1019228	698	137
0	1020551	699	130
0	1021893	700	126
0	1023517	701	153
0	1025272	702	172
0	1026795	703	136
0	1028325	704	139
0	1029723	705	143
0	1031226	706	162
0	1032480	707	119
0	1033910	708	147
0	1035531	709	160
0	1037155	710	144
0	1038535	711	141
0	1039883	712	109
0	1041252	713	132
0	1042623	714	130
0	1044189	715	159
0	1045664	716	152
0	1047201	717	148
0	1048569	718	131
0	1050028	719	146
0	1051597	720	143
0	1052816	721	98
0	1053846	722	91
0	1055772	723	183
0	1057320	724	139
0	1058933	725	170
0	1060436	726	148
0	1062096	727	177
0	1063343	728	118
0	1064957	729	161
0	1066070	730	107
0	1067382	731	117
0	1068878	732	131
0	1070416	733	143
0	1071548	734	101
0	1073154	735	159
0	1074885	736	188
0	1076400	737	138
0	1077627	738	114
0	1079185	739	159
0	1080841	740	156
0	1081909	741	91
0	1083613	742	159
0	1084916	743	130
0	1086855	744	188
0	1088413	745	141
0	1089772	746	126
0	1091337	747	144
0	1092823	748	145
0	1093931	749	95
0	1095185	750	96
0	1096460	751	104
0	1097739	752	130
0	1099099	753	133
0	1100275	754	97
0	1101619	755	129
0	1102792	756	116
0	1104175	757	142
0	1105442	758	118
0	1106782	759	127
0	1108042	760	106
0	1109460	761	127
0	1110632	762	105
0	1111982	763	99
0	1113713	764	178
0	1115042	765	132
0	1116222	766	125
0	1117902	767	147
0	1119943	768	214
0	1121307	769	137
0	1122747	770	144
0	1123901	771	99
0	1125383	772	137
0	1126760	773	114
0	1128293	774	172
0	1130068	775	194
0	1131435	776	130
0	1133011	777	157
0	1134530	778	150
0	1135891	779	132
0	1137365	780	126
0	1138835	781	135
0	1140595	782	163
0	1141872	783	114
0	1143762	784	197
0	1144827	785	108
0	1146316	786	130
0	1147460	787	111
0	1148758	788	125
0	1150143	789	140
0	1151537	790	128
0	1152881	791	135
0	1154476	792	158
0	1155546	793	91
0	1156983	794	140
0	1158287	795	131
0	1159895	796	153
0	1161150	797	122
0	1162588	798	121
0	1163808	799	97
0	1165067	800	117
0	1166790	801	166
0	1168155	802	124
0	1169860	803	176
0	1171107	804	110
0	1172422	805	114
0	1173826	806	137
0	1175244	807	139
0	1176664	808	153
0	1178330	809	147
0	1179791	810	135
0	1181574	811	180
0	1182861	812	124
0	1184141	813	119
0	1185310	814	106
0	1186750	815	125
0	1188333	816	154
0	1189832	817	148
0	1191379	818	148
0	1192883	819	153
0	1194476	820	143
0	1196098	821	163
0	1197301	822	114
0	1198813	823	149
0	1200395	824	151
0	1201929	825	149
0	1203712	826	160
0	1204867	827	110
0	1206361	828	137
0	1207726	829	114
0	1209380	830	170
0	1210925	831	140
0	1212500	832	152
0	1214102	833	155
0	1215820	834	165
0	1217377	835	138
0	1218961	836	143
0	1220229	837	125
0	1221537	838	109
0	1223137	839	157
0	1224522	840	137
0	1225811	841	124
0	1227196	842	150
0	1228529	843	132
0	1230329	844	167
0	1231980	845	162
0	1233646	846	153
0	1235306	847	163
0	1236886	848	149
0	1238570	849	155
0	1240298	850	168
0	1241586	851	125
0	1243169	852	154
0	1244426	853	110
0	1245817	854	124
0	1247427	855	167
0	1248696	856	112
0	1250423	857	176
0	1252167	858	147
0	1253474	859	118
0	1255040	860	136
0	1256370	861	137
0	1257716	862	117
0	1259266	863	145
0	1260851	864	158
0	1262334	865	128
0	1263998	866	157
0	1265054	867	95
0	1266449	868	128
0	1267604	869	114
0	1269053	870	125
0	1270441	871	141
0	1272107	872	149
0	1273630	873	154
0	1274832	874	113
0	1276443	875	162
0	1277895	876	127
0	1279233	877	123
0	1280732	878	136
0	1281969	879	114
0	1283539	880	146
0	1285050	881	140
0	1286626	882	155
0	1288379	883	186
0	1289593	884	111
0	1290758	885	102
0	1292343	886	152
0	1293848	887	164
0	1295144	888	117
0	1296651	889	142
0	1298240	890	143
0	1299528	891	129
0	1300974	892	131
0	1302489	893	142
0	1303745	894	109
0	1305276	895	130
0	1306651	896	118
0	1308235	897	181
0	1309252	898	96
0	1310553	899	116
0	1312174	900	149
0	1313989	901	192
0	1315656	902	170
0	1317360	903	177
0	1318487	904	108
0	1319902	905	132
0	1321346	906	127
0	1322779	907	150
0	1324257	908	139
0	1325790	909	144
0	1327462	910	168
0	1329009	911	138
0	1330342	912	124
0	1331765	913	146
0	1333271	914	141
0	1334609	915	129
0	1335994	916	132
0	1337441	917	134
0	1338695	918	123
0	1340163	919	133
0	1341556	920	147
0	1343061	921	128
0	1344407	922	123
0	1345868	923	148
0	1347310	924	151
0	1349041	925	170
0	1350212	926	116
0	1351597	927	140
0	1353658	928	214
0	1355239	929	142
0	1356592	930	137
0	1358388	931	169
0	1359673	932	120
0	1361213	933	147
0	1362323	934	85
0	1363828	935	156
0	1365251	936	128
0	1366551	937	129
0	1367701	938	93
0	1369179	939	147
0	1370805	940	174
0	1372391	941	147
0	1373572	942	106
0	1374947	943	142
0	1376459	944	157
0	1377718	945	100
0	1379090	946	149
0	1380602	947	129
0	1381700	948	93
0	1383386	949	169
0	1384373	950	79
0	1385903	951	149
0	1387559	952	145
0	1388813	953	123
0	1390580	954	158
0	1391687	955	110
0	1393153	956	149
0	1394473	957	127
0	1396158	958	172
0	1397450	959	115
0	1398781	960	147
0	1400182	961	146
0	1401436	962	109
0	1402881	963	120
0	1404541	964	165
0	1406460	965	176
0	1407882	966	117
0	1409463	967	152
0	1411102	968	158
0	1412729	969	142
0	1413909	970	120
0	1414993	971	107
0	1416507	972	161
0	1417639	973	117
0	1418955	974	117
0	1420345	975	139
0	1421657	976	115
0	1423239	977	153
0	1424755	978	145
0	1426444	979	144
0	1428110	980	174
0	1429546	981	119
0	1431008	982	133
0	1432713	983	176
0	1434501	984	173
0	1435921	985	145
0	1437650	986	164
0	1438941	987	118
0	1440519	988	159
0	1442404	989	192
0	1443826	990	138
0	1445060	991	113
0	1446491	992	142
0	1447336	993	74
0	1448723	994	146
0	1450430	995	166
0	1452040	996	145
0	1453159	997	92
0	1454944	998	198
0	1456197	999	118
0	1457591	1000	130
0	1458919	1001	125
0	1460425	1002	151
0	1461981	1003	157
0	1463336	1004	126
0	1464784	1005	147
0	1466115	1006	124
0	1467214	1007	98
0	1468963	1008	160
0	1470283	1009	113
0	1471525	1010	90
0	1473223	1011	171
0	1475139	1012	205
0	1476706	1013	152
0	1478471	1014	184
0	1479775	1015	125
0	1481203	1016	135
0	1482747	1017	159
0	1484392	1018	160
0	1485670	1019	127
0	1487386	1020	158
0	1488882	1021	141
0	1490374	1022	129
0	1491938	1023	157
0	1493853	1024	206
0	1495207	1025	135
0	1496430	1026	110
0	1498217	1027	184
0	1499875	1028	145
0	1501379	1029	143
0	1502906	1030	135
0	1504456	1031	157
0	1505882	1032	137
0	1507290	1033	129
0	1508552	1034	131
0	1510316	1035	175
0	1512030	1036	179
0	1513433	1037	136
0	1514947	1038	151
0	1516641	1039	167
0	1518247	1040	158
0	1519734	1041	128
0	1521128	1042	137
0	1522521	1043	140
0	1523779	1044	111
0	1525250	1045	120
0	1526640	1046	133
0	1528082	1047	141
0	1529780	1048	173
0	1531311	1049	150
0	1532835	1050	152
0	1534428	1051	144
0	1535700	1052	127
0	1536822	1053	105
0	1538335	1054	108
0	1539854	1055	140
0	1541251	1056	122
0	1542692	1057	146
0	1544089	1058	130
0	1545653	1059	149
0	1547246	1060	153
0	1548581	1061	118
0	1549872	1062	106
0	1551560	1063	169
0	1552744	1064	121
0	1554076	1065	133
0	1555467	1066	128
0	1556859	1067	137
0	1558826	1068	192
0	1560193	1069	138
0	1561495	1070	134
0	1562995	1071	135
0	1564412	1072	134
0	1565723	1073	132
0	1567102	1074	134
0	1568126	1075	105
0	1569480	1076	127
0	1570902	1077	127
0	1572157	1078	114
0	1573477	1079	113
0	1575143	1080	174
0	1576813	1081	157
0	1578674	1082	196
0	1580304	1083	177
0	1581887	1084	172
0	1583142	1085	120
0	1584338	1086	101
0	1585849	1087	148
0	1587099	1088	113
0	1588235	1089	101
0	1590037	1090	172
0	1591423	1091	137
0	1592871	1092	143
0	1594364	1093	138
0	1596084	1094	179
0	1597745	1095	166
0	1599090	1096	128
0	1600484	1097	139
0	1601787	1098	134
0	1603214	1099	132
0	1604587	1100	137
0	1605710	1101	78
0	1607227	1102	148
0	1608724	1103	148
0	1610495	1104	170
0	1612072	1105	154
0	1613422	1106	121
0	1615195	1107	172
0	1616395	1108	105
0	1617920	1109	126
0	1619343	1110	143
0	1620837	1111	133
0	1622017	1112	99
0	1623832	1113	174
0	1625108	1114	117
0	1626586	1115	131
0	1628212	1116	145
0	1629626	1117	129
0	1630948	1118	119
0	1632289	1119	136
0	1633715	1120	124
0	1635084	1121	146
0	1636491	1122	140
0	1637877	1123	143
0	1639367	1124	157
0	1640444	1125	96
0	1641623	1126	110
0	1643344	1127	166
0	1644486	1128	105
0	1645738	1129	113
0	1647118	1130	152
0	1648365	1131	118
0	1649930	1132	146
0	1651728	1133	173
0	1653389	1134	172
0	1654908	1135	158
0	1656469	1136	164
0	1657790	1137	116
0	1659281	1138	154
0	1660863	1139	163
0	1662222	1140	121
0	1663869	1141	174
0	1665099	1142	115
0	1666672	1143	164
0	1668176	1144	163
0	1669568	1145	139
0	1670954	1146	133
0	1672243	1147	110
0	1673646	1148	128
0	1675199	1149	152
0	1676426	1150	95
0	1677881	1151	148
0	1679543	1152	175
0	1680901	1153	125
0	1682258	1154	122
0	1683589	1155	118
0	1684779	1156	101
0	1686050	1157	126
0	1687444	1158	131
0	1688959	1159	130
0	1690439	1160	144
0	1692116	1161	150
0	1693439	1162	130
0	1694986	1163	148
0	1696692	1164	171
0	1698084	1165	135
0	1699436	1166	123
0	1700924	1167	135
0	1702414	1168	133
0	1703917	1169	144
0	1705329	1170	142
0	1706761	1171	135
0	1707805	1172	91
0	1709055	1173	105
0	1710685	1174	153
0	1711989	1175	113
0	1713527	1176	159
0	1715112	1177	152
0	1716869	1178	154
0	1718395	1179	165
0	1720004	1180	155
0	1721283	1181	118
0	1723063	1182	175
0	1724648	1183	142
0	1726081	1184	124
0	1727273	1185	105
0	1728604	1186	118
0	1730159	1187	156
0	1731514	1188	104
0	1733282	1189	177
0	1734762	1190	136
0	1736335	1191	144
0	1737983	1192	161
0	1739797	1193	183
0	1741617	1194	181
0	1742977	1195	117
0	1744267	1196	139
0	1745825	1197	139
0	1747446	1198	168
0	1749043	1199	168
0	1750414	1200	123
0	1752095	1201	166
0	1753788	1202	148
0	1755133	1203	118
0	1756384	1204	112
0	1757649	1205	108
0	1759243	1206	185
0	1761003	1207	163
0	1762333	1208	121
0	1763609	1209	117
0	1764859	1210	108
0	1766315	1211	153
0	1767641	1212	123
0	1768807	1213	115
0	1770162	1214	120
0	1771684	1215	161
0	1773344	1216	161
0	1774926	1217	155
0	1776415	1218	160
0	1777578	1219	116
0	1778923	1220	125
0	1780024	1221	96
0	1781323	1222	118
0	1782560	1223	116
0	1784127	1224	168
0	1785806	1225	160
0	1787313	1226	150
0	1789096	1227	174
0	1790231	1228	106
0	1791505	1229	111
0	1792751	1230	126
0	1794180	1231	134
0	1795442	1232	109
0	1796974	1233	147
0	1798291	1234	130
0	1799872	1235	160
0	1801747	1236	180
0	1802759	1237	87
0	1804145	1238	139
0	1805746	1239	158
0	1806961	1240	127
0	1808180	1241	118
0	1809986	1242	183
0	1811424	1243	123
0	1813483	1244	210
0	1814669	1245	111
0	1816148	1246	126
0	1817450	1247	99
0	1818705	1248	110
0	1820056	1249	130
0	1821615	1250	149
0	1822900	1251	120
0	1824059	1252	114
0	1825408	1253	116
0	1826893	1254	126
0	1828535	1255	163
0	1830074	1256	144
0	1831237	1257	98
0	1832687	1258	145
0	1834721	1259	201
0	1836446	1260	159
0	1837901	1261	122
0	1839083	1262	131
0	1840427	1263	127
0	1841523	1264	107
0	1842663	1265	119
0	1843764	1266	102
0	1844766	1267	99
0	1845845	1268	104
0	1847337	1269	153
0	1848614	1270	127
0	1849910	1271	111
0	1851426	1272	145
0	1852873	1273	128
0	1854191	1274	133
0	1855401	1275	101
0	1856841	1276	137
0	1858554	1277	154
0	1860179	1278	146
0	1861575	1279	143
0	1863065	1280	146
0	1864517	1281	141
0	1866366	1282	162
0	1867880	1283	165
0	1869249	1284	136
0	1870604	1285	132
0	1872107	1286	156
0	1873501	1287	141
0	1874905	1288	115
0	1876330	1289	132
0	1877791	1290	151
0	1879412	1291	160
0	1881148	1292	177
0	1882599	1293	126
0	1884158	1294	138
0	1885636	1295	135
0	1887189	1296	148
0	1888700	1297	142
0	1890030	1298	111
0	1891170	1299	93
0	1892817	1300	153
0	1894493	1301	165
0	1895750	1302	116
0	1897119	1303	128
0	1898445	1304	123
0	1900150	1305	164
0	1901909	1306	168
0	1903433	1307	135
0	1904788	1308	118
0	1906022	1309	123
0	1907579	1310	155
0	1909039	1311	139
0	1910550	1312	146
0	1911894	1313	119
0	1913532	1314	135
0	1914979	1315	118
0	1916516	1316	156
0	1917826	1317	137
0	1919239	1318	138
0	1920608	1319	130
0	1922278	1320	176
0	1923441	1321	112
0	1924755	1322	133
0	1926577	1323	171
0	1928253	1324	173
0	1929842	1325	158
0	1931571	1326	158
0	1933385	1327	187
0	1934948	1328	164
0	1936488	1329	147
0	1937907	1330	129
0	1939424	1331	140
0	1940939	1332	146
0	1942505	1333	143
0	1943870	1334	128
0	1945522	1335	143
0	1946806	1336	127
0	1948494	1337	145
0	1949768	1338	119
0	1951362	1339	143
0	1953086	1340	174
0	1954365	1341	134
0	1955772	1342	134
0	1957607	1343	180
0	1959195	1344	141
0	1960654	1345	134
0	1962199	1346	140
0	1963596	1347	130
0	1964937	1348	118
0	1966438	1349	156
0	1967759	1350	127
0	1969392	1351	146
0	1970864	1352	153
0	1972121	1353	120
0	1973707	1354	157
0	1974972	1355	120
0	1976301	1356	124
0	1977742	1357	146
0	1979279	1358	138
0	1980657	1359	127
0	1982273	1360	144
0	1983872	1361	154
0	1985398	1362	151
0	1986645	1363	130
0	1988078	1364	152
0	1989622	1365	157
0	1991252	1366	147
0	1992750	1367	155
0	1994352	1368	151
0	1995646	1369	129
0	1997233	1370	139
0	1998792	1371	170
0	2000159	1372	118
0	2001554	1373	140
0	2002776	1374	117
0	2004169	1375	120
0	2005504	1376	130
0	2006967	1377	132
0	2008367	1378	133
0	2009815	1379	143
0	2011268	1380	127
0	2012802	1381	147
0	2014507	1382	166
0	2015685	1383	125
0	2017101	1384	139
0	2018786	1385	156
0	2020182	1386	151
0	2021525	1387	136
0	2022562	1388	94
0	2024104	1389	163
0	2025590	1390	134
0	2027404	1391	171
0	2028824	1392	129
0	2030259	1393	134
0	2031731	1394	133
0	2033431	1395	181
0	2034913	1396	147
0	2036419	1397	141
0	2037710	1398	116
0	2039083	1399	118
0	2040531	1400	144
0	2042041	1401	157
0	2043360	1402	110
0	2044999	1403	146
0	2046096	1404	80
0	2047467	1405	130
0	2048953	1406	127
0	2050281	1407	123
0	2051961	1408	167
0	2053353	1409	129
0	2054759	1410	150
0	2056058	1411	124
0	2057521	1412	128
0	2059041	1413	159
0	2060464	1414	116
0	2061735	1415	126
0	2062865	1416	87
0	2063909	1417	89
0	2065352	1418	136
0	2067317	1419	190
0	2068656	1420	117
0	2070151	1421	146
0	2071615	1422	139
0	2072846	1423	120
0	2074332	1424	131
0	2075633	1425	120
0	2077208	1426	136
0	2078933	1427	176
0	2080571	1428	157
0	2081990	1429	132
0	2083158	1430	124
0	2084665	1431	156
0	2086009	1432	125
0	2087622	1433	160
0	2088907	1434	120
0	2090086	1435	102
0	2091669	1436	158
0	2092908	1437	130
0	2094551	1438	170
0	2095883	1439	121
0	2097408	1440	159
0	2098857	1441	150
0	2100542	1442	166
0	2102172	1443	145
0	2103537	1444	132
0	2104871	1445	137
0	2106623	1446	165
0	2108325	1447	171
0	2110110	1448	178
0	2111839	1449	174
0	2113508	1450	151
0	2114778	1451	117
0	2116178	1452	135
0	2117386	1453	99
0	2118915	1454	142
0	2120291	1455	125
0	2121861	1456	151
0	2123572	1457	160
0	2125014	1458	131
0	2126455	1459	140
0	2127652	1460	101
0	2129222	1461	139
0	2130629	1462	146
0	2132055	1463	135
0	2133480	1464	132
0	2135181	1465	160
0	2136579	1466	141
0	2137803	1467	117
0	2139111	1468	123
0	2140634	1469	138
0	2142102	1470	148
0	2143684	1471	175
0	2145170	1472	125
0	2146789	1473	164
0	2148319	1474	153
0	2149383	1475	99
0	2151114	1476	182
0	2152605	1477	146
0	2154052	1478	134
0	2155281	1479	104
0	2156727	1480	122
0	2158579	1481	163
0	2160205	1482	167
0	2161533	1483	111
0	2163224	1484	162
0	2164906	1485	165
0	2166288	1486	123
0	2167543	1487	124
0	2169012	1488	132
0	2170512	1489	135
0	2171917	1490	155
0	2172870	1491	92
0	2174515	1492	166
0	2176012	1493	150
0	2177355	1494	136
0	2178869	1495	143
0	2180343	1496	143
0	2181705	1497	139
0	2183135	1498	131
0	2184498	1499	130
0	2186535	1500	189
0	2187987	1501	135
0	2189389	1502	151
0	2190654	1503	122
0	2192092	1504	129
0	2193619	1505	150
0	2194916	1506	108
0	2196228	1507	129
0	2197856	1508	145
0	2199435	1509	142
0	2201075	1510	162
0	2202499	1511	135
0	2203827	1512	119
0	2205224	1513	134
0	2206623	1514	122
0	2208029	1515	123
0	2209465	1516	149
0	2210730	1517	124
0	2212006	1518	131
0	2213476	1519	137
0	2215023	1520	139
0	2216377	1521	133
0	2218042	1522	156
0	2219418	1523	139
0	2221093	1524	166
0	2222391	1525	109
0	2224087	1526	163
0	2225350	1527	124
0	2226623	1528	104
0	2228008	1529	136
0	2229528	1530	134
0	2230966	1531	137
0	2232465	1532	134
0	2234170	1533	164
0	2235773	1534	154
0	2237446	1535	156
0	2238932	1536	137
0	2240425	1537	134
0	2242031	1538	167
0	2243753	1539	163
0	2245059	1540	108
0	2246385	1541	117
0	2248089	1542	147
0	2249738	1543	158
0	2251254	1544	151
0	2252281	1545	96
0	2253773	1546	125
0	2255240	1547	136
0	2256610	1548	149
0	2257968	1549	107
0	2259333	1550	131
0	2260646	1551	124
0	2261791	1552	112
0	2263103	1553	115
0	2264466	1554	126
0	2265854	1555	119
0	2267251	1556	124
0	2268808	1557	152
0	2270359	1558	142
0	2271883	1559	149
0	2273361	1560	146
0	2274602	1561	94
0	2276116	1562	133
0	2277405	1563	144
0	2278976	1564	152
0	2280640	1565	151
0	2282026	1566	131
0	2283382	1567	141
0	2284686	1568	139
0	2286082	1569	137
0	2287490	1570	138
0	2288842	1571	139
0	2290254	1572	139
0	2291635	1573	146
0	2293330	1574	170
0	2294848	1575	155
0	2296118	1576	133
0	2297218	1577	115
0	2298825	1578	144
0	2299954	1579	92
0	2301587	1580	145
0	2303092	1581	152
0	2304503	1582	132
0	2305918	1583	132
0	2307367	1584	120
0	2309045	1585	165
0	2310371	1586	115
0	2312005	1587	167
0	2313345	1588	131
0	2314831	1589	161
0	2316549	1590	170
0	2317999	1591	139
0	2319348	1592	140
0	2321091	1593	160
0	2322407	1594	131
0	2324179	1595	197
0	2325838	1596	162
0	2327146	1597	117
0	2328612	1598	139
0	2329879	1599	108
0	2331209	1600	120
0	2332784	1601	138
0	2334427	1602	166
0	2335767	1603	133
0	2337417	1604	143
0	2339272	1605	190
0	2341127	1606	198
0	2342400	1607	120
0	2343876	1608	137
0	2345320	1609	129
0	2346513	1610	101
0	2347834	1611	130
0	2349404	1612	155
0	2350526	1613	91
0	2351944	1614	131
0	2353541	1615	132