version 3
run SimulationTime-99-20240107-16:16:08-11332
attr configname SimulationTime
attr datetime 20240107-16:16:08
attr datetimef 20240107-161608
attr experiment SimulationTime
attr inifile omnetpp.ini
attr iterationvars ""
attr iterationvarsd ""
attr iterationvarsf ""
attr measurement ""
attr network System
attr processid 11332
attr repetition 99
attr replication #99
attr resultdir results
attr runnumber 99
attr seedset 99
config **.cpu.rate 1000
config **.hd.rateProcessing 250
config **.webServer.web_server_rate 100
config **.p1 0.35
config **.p2 0.40
config network System
config num-rngs 4
config **.cpu.rng-0 0
config **.cpu.rng-1 1
config **.hd.rng-0 2
config **.webServer.rng-0 3
config repeat 500
config seed-set 99
config sim-time-limit 10000s
config **.client.numClients 40

vector 0 System.server.cpu requestCounterStat:vector ETV
attr recordingmode vector
attr source requestCounter
vector 1 System.server.hd utilizationHdStat:vector ETV
attr recordingmode vector
attr source utilizationHd
vector 2 System.server.cpu utilizationCpuStat:vector ETV
attr recordingmode vector
attr source utilizationCpu
vector 3 System.webServer utilizationWsStat:vector ETV
attr recordingmode vector
attr source utilizationWs
0	1951	1	194
0	3341	2	129
0	5143	3	181
0	6673	4	151
0	7954	5	120
0	9499	6	162
0	11137	7	171
0	12413	8	129
0	13805	9	143
0	15270	10	163
0	16616	11	135
0	18053	12	152
0	19668	13	174
0	21199	14	126
0	23077	15	185
0	24259	16	111
0	25816	17	134
0	27151	18	132
0	28919	19	167
0	30349	20	126
0	31847	21	143
0	33463	22	153
0	35085	23	149
0	36638	24	170
0	38053	25	146
0	39166	26	102
0	40642	27	139
0	41960	28	121
0	43406	29	137
0	45055	30	161
0	46387	31	127
0	47906	32	164
0	49270	33	133
0	50530	34	107
0	52290	35	177
0	53596	36	127
0	55124	37	151
0	56817	38	150
0	58575	39	171
0	60512	40	163
0	62105	41	150
0	63715	42	165
0	65372	43	150
0	67002	44	157
0	68751	45	170
0	70083	46	119
0	71320	47	112
0	72832	48	153
0	74260	49	121
0	75559	50	115
0	76898	51	136
0	78339	52	152
0	79712	53	120
0	81175	54	144
0	82595	55	147
0	84287	56	171
0	86040	57	156
0	87471	58	136
0	88971	59	149
0	90518	60	165
0	91951	61	136
0	93444	62	128
0	94834	63	121
0	96315	64	144
0	98116	65	206
0	99719	66	162
0	101342	67	138
0	103013	68	158
0	104535	69	155
0	106222	70	165
0	107553	71	122
0	109020	72	150
0	110535	73	158
0	111855	74	137
0	113232	75	128
0	114557	76	144
0	116063	77	137
0	117640	78	148
0	119033	79	142
0	120375	80	128
0	121817	81	129
0	123652	82	166
0	125088	83	137
0	126443	84	142
0	127733	85	133
0	129260	86	160
0	130727	87	154
0	131943	88	105
0	133251	89	105
0	134661	90	122
0	136203	91	161
0	137605	92	115
0	139048	93	138
0	140371	94	112
0	141792	95	120
0	143366	96	151
0	144683	97	126
0	146210	98	144
0	147874	99	137
0	149355	100	131
0	150694	101	106
0	151730	102	89
0	153099	103	126
0	154594	104	136
0	155990	105	121
0	157726	106	163
0	158890	107	111
0	160388	108	159
0	161755	109	116
0	163425	110	156
0	164805	111	125
0	166446	112	170
0	168170	113	165
0	169974	114	173
0	171775	115	182
0	173317	116	135
0	175171	117	185
0	176870	118	168
0	177977	119	98
0	179344	120	125
0	180511	121	110
0	181742	122	124
0	182951	123	110
0	184354	124	126
0	186181	125	162
0	187685	126	147
0	189307	127	157
0	190916	128	166
0	192424	129	137
0	193937	130	143
0	195186	131	118
0	196995	132	188
0	198606	133	146
0	200261	134	170
0	201890	135	144
0	203507	136	148
0	205183	137	181
0	206717	138	149
0	208311	139	157
0	209827	140	138
0	211432	141	144
0	212838	142	121
0	214216	143	121
0	215579	144	128
0	217080	145	152
0	218465	146	136
0	219864	147	144
0	221476	148	161
0	223005	149	130
0	224280	150	131
0	225722	151	149
0	227119	152	130
0	228802	153	164
0	230426	154	149
0	232172	155	163
0	233779	156	152
0	235096	157	116
0	236317	158	128
0	238087	159	191
0	239613	160	160
0	241091	161	151
0	242737	162	155
0	243801	163	105
0	245109	164	117
0	246249	165	109
0	247762	166	148
0	249251	167	130
0	250562	168	110
0	251968	169	149
0	253322	170	138
0	254786	171	137
0	256576	172	155
0	258104	173	145
0	259493	174	124
0	261174	175	168
0	262645	176	130
0	264156	177	138
0	265675	178	154
0	266825	179	95
0	268212	180	109
0	269552	181	129
0	270841	182	120
0	272387	183	151
0	273780	184	140
0	275168	185	149
0	276542	186	119
0	277758	187	129
0	279401	188	152
0	280958	189	146
0	282675	190	163
0	284052	191	132
0	285629	192	146
0	287029	193	117
0	288326	194	106
0	289784	195	139
0	291610	196	173
0	292885	197	124
0	294066	198	102
0	295254	199	107
0	296994	200	172
0	298438	201	129
0	299898	202	129
0	301276	203	131
0	303044	204	163
0	304684	205	165
0	305913	206	100
0	307074	207	108
0	308588	208	157
0	310411	209	178
0	311577	210	118
0	313028	211	138
0	314497	212	156
0	316002	213	144
0	317519	214	144
0	318888	215	140
0	320161	216	116
0	321333	217	101
0	322570	218	112
0	324271	219	170
0	325607	220	130
0	327183	221	159
0	328687	222	155
0	329630	223	74
0	330960	224	139
0	332412	225	125
0	334140	226	173
0	335841	227	168
0	337398	228	140
0	339107	229	168
0	340644	230	139
0	342000	231	129
0	343792	232	173
0	345352	233	137
0	346880	234	145
0	348333	235	136
0	349593	236	133
0	351153	237	147
0	352494	238	110
0	354094	239	159
0	355360	240	118
0	356848	241	163
0	358454	242	183
0	360240	243	183
0	361591	244	122
0	362969	245	129
0	364470	246	142
0	365941	247	138
0	367018	248	102
0	368495	249	134
0	370251	250	176
0	371783	251	123
0	373257	252	131
0	374610	253	130
0	376126	254	155
0	377779	255	166
0	379337	256	151
0	380706	257	144
0	381981	258	112
0	383219	259	113
0	384775	260	152
0	386317	261	163
0	387770	262	146
0	389209	263	128
0	390462	264	108
0	391694	265	103
0	393035	266	114
0	394552	267	158
0	396203	268	176
0	397766	269	146
0	399067	270	131
0	400578	271	162
0	402132	272	135
0	403446	273	107
0	404531	274	98
0	406138	275	144
0	407706	276	153
0	409077	277	126
0	410506	278	144
0	411822	279	121
0	413178	280	98
0	414392	281	113
0	415608	282	111
0	417213	283	142
0	418432	284	116
0	420035	285	166
0	421459	286	127
0	422787	287	129
0	424207	288	137
0	425545	289	115
0	426900	290	125
0	428102	291	113
0	429139	292	96
0	430640	293	166
0	432027	294	130
0	433472	295	124
0	434928	296	137
0	436359	297	140
0	438101	298	161
0	439499	299	123
0	440864	300	135
0	442510	301	151
0	443953	302	138
0	445524	303	166
0	446895	304	142
0	448254	305	114
0	449780	306	141
0	451242	307	141
0	452648	308	131
0	453738	309	111
0	454835	310	87
0	456512	311	166
0	457798	312	121
0	459424	313	167
0	461130	314	175
0	462709	315	148
0	464110	316	138
0	465624	317	159
0	467122	318	143
0	468543	319	124
0	470041	320	136
0	472024	321	188
0	473509	322	148
0	475122	323	168
0	476435	324	132
0	478030	325	162
0	479480	326	125
0	480941	327	142
0	482644	328	186
0	484509	329	178
0	486298	330	197
0	488046	331	183
0	489432	332	135
0	490884	333	121
0	492258	334	135
0	493618	335	121
0	495109	336	144
0	496741	337	169
0	498499	338	191
0	500123	339	141
0	501873	340	174
0	503529	341	159
0	505242	342	160
0	506935	343	162
0	508456	344	138
0	509925	345	128
0	511320	346	122
0	512902	347	141
0	514107	348	112
0	515485	349	111
0	516822	350	115
0	518257	351	138
0	519616	352	140
0	521058	353	141
0	522437	354	146
0	523791	355	121
0	525200	356	122
0	526431	357	106
0	527641	358	115
0	528929	359	127
0	530304	360	123
0	531879	361	150
0	533066	362	94
0	534447	363	132
0	535546	364	104
0	537043	365	124
0	538292	366	118
0	539456	367	105
0	540703	368	106
0	542342	369	168
0	544088	370	176
0	545403	371	126
0	546823	372	105
0	548178	373	120
0	549539	374	134
0	551382	375	186
0	552674	376	121
0	554051	377	132
0	555388	378	144
0	556725	379	136
0	558392	380	169
0	560053	381	168
0	561361	382	121
0	562436	383	110
0	564068	384	151
0	565604	385	159
0	567008	386	153
0	568581	387	164
0	570009	388	141
0	571434	389	136
0	572803	390	113
0	574371	391	163
0	575894	392	142
0	576969	393	82
0	578767	394	191
0	580559	395	197
0	582060	396	132
0	583747	397	140
0	584832	398	98
0	586280	399	125
0	587769	400	149
0	589155	401	133
0	590600	402	142
0	591997	403	130
0	593413	404	145
0	595172	405	174
0	596563	406	134
0	597776	407	112
0	598941	408	100
0	600242	409	116
0	601794	410	132
0	603160	411	129
0	604536	412	127
0	606303	413	174
0	607687	414	131
0	609075	415	129
0	610740	416	144
0	612151	417	160
0	613341	418	107
0	614794	419	148
0	616151	420	119
0	617619	421	143
0	619276	422	174
0	620820	423	149
0	622062	424	117
0	623423	425	138
0	624695	426	125
0	626470	427	158
0	627756	428	131
0	629069	429	116
0	630805	430	176
0	632191	431	143
0	633497	432	115
0	634942	433	124
0	636511	434	152
0	637779	435	129
0	639497	436	191
0	641091	437	143
0	642467	438	113
0	643812	439	110
0	645222	440	132
0	646849	441	158
0	648460	442	142
0	649673	443	112
0	651068	444	132
0	652396	445	139
0	653496	446	101
0	655211	447	154
0	656970	448	164
0	658782	449	187
0	659967	450	115
0	661175	451	115
0	662663	452	159
0	664091	453	127
0	665606	454	156
0	667113	455	132
0	668870	456	168
0	670103	457	90
0	671878	458	186
0	673308	459	139
0	674752	460	144
0	676100	461	137
0	678122	462	223
0	679675	463	154
0	681037	464	133
0	682496	465	136
0	683709	466	106
0	685025	467	125
0	686279	468	127
0	687481	469	99
0	688755	470	126
0	690327	471	151
0	691705	472	129
0	693285	473	153
0	694857	474	153
0	696403	475	143
0	697613	476	105
0	699060	477	152
0	700784	478	173
0	702297	479	160
0	703591	480	134
0	705252	481	130
0	706623	482	120
0	708265	483	151
0	709689	484	125
0	711136	485	162
0	712666	486	157
0	714029	487	144
0	715687	488	161
0	717136	489	134
0	718314	490	110
0	720015	491	158
0	721661	492	167
0	723224	493	156
0	724725	494	144
0	726095	495	119
0	727468	496	128
0	729031	497	134
0	730612	498	136
0	731896	499	113
0	733124	500	126
0	734712	501	153
0	735942	502	127
0	737447	503	146
0	738946	504	134
0	740756	505	191
0	742220	506	155
0	743800	507	139
0	745550	508	149
0	746889	509	120
0	748293	510	128
0	749752	511	142
0	751295	512	158
0	752522	513	108
0	754119	514	168
0	755767	515	155
0	757127	516	137
0	758720	517	146
0	760082	518	127
0	761582	519	145
0	763139	520	141
0	764552	521	168
0	766058	522	159
0	767517	523	138
0	769133	524	161
0	770887	525	183
0	772587	526	165
0	774097	527	159
0	775801	528	173
0	777467	529	159
0	779079	530	168
0	780445	531	121
0	781800	532	144
0	783322	533	155
0	784846	534	135
0	786161	535	128
0	787783	536	145
0	789106	537	116
0	790450	538	141
0	791526	539	97
0	793019	540	135
0	794562	541	150
0	795878	542	121
0	797229	543	100
0	798747	544	141
0	800021	545	111
0	801574	546	152
0	803018	547	125
0	804755	548	168
0	806306	549	154
0	807724	550	138
0	808907	551	90
0	810679	552	173
0	812233	553	151
0	813786	554	148
0	814909	555	118
0	816417	556	139
0	817858	557	144
0	819283	558	150
0	820722	559	142
0	822146	560	124
0	823401	561	114
0	824465	562	97
0	825609	563	109
0	827096	564	158
0	828412	565	105
0	829791	566	126
0	830855	567	93
0	832176	568	124
0	833740	569	137
0	835227	570	145
0	836733	571	127
0	838254	572	148
0	839496	573	123
0	841125	574	162
0	842561	575	139
0	843849	576	131
0	845356	577	142
0	846676	578	141
0	847982	579	125
0	849467	580	129
0	850695	581	107
0	852258	582	168
0	853582	583	127
0	855172	584	163
0	856726	585	151
0	857973	586	114
0	859466	587	144
0	861182	588	167
0	862650	589	137
0	863917	590	123
0	865378	591	128
0	866626	592	131
0	868164	593	139
0	869655	594	156
0	870957	595	123
0	872246	596	124
0	873845	597	138
0	875001	598	113
0	876349	599	145
0	877591	600	122
0	878721	601	103
0	880246	602	156
0	881654	603	137
0	883175	604	152
0	884778	605	162
0	886349	606	162
0	888262	607	178
0	889795	608	136
0	891057	609	121
0	892372	610	115
0	893977	611	162
0	895578	612	162
0	896947	613	134
0	898407	614	141
0	900108	615	158
0	901480	616	131
0	903045	617	160
0	904905	618	181
0	906335	619	129
0	907727	620	138
0	909500	621	156
0	910920	622	127
0	912124	623	123
0	913464	624	145
0	914972	625	137
0	916301	626	128
0	917898	627	158
0	919310	628	129
0	920580	629	131
0	922057	630	125
0	923777	631	165
0	925225	632	137
0	926702	633	138
0	928210	634	155
0	929474	635	125
0	930939	636	132
0	932379	637	133
0	933831	638	153
0	935445	639	175
0	937018	640	159
0	938737	641	174
0	940403	642	163
0	941626	643	110
0	942988	644	133
0	944470	645	141
0	946195	646	170
0	947575	647	127
0	949112	648	148
0	950548	649	125
0	952007	650	151
0	953720	651	158
0	955246	652	125
0	956713	653	136
0	958279	654	155
0	959947	655	155
0	961421	656	149
0	962740	657	126
0	964284	658	163
0	965875	659	158
0	967079	660	108
0	968683	661	143
0	970054	662	126
0	971480	663	143
0	973076	664	169
0	974365	665	120
0	975694	666	112
0	977280	667	149
0	978885	668	150
0	980443	669	159
0	981986	670	129
0	983681	671	170
0	985134	672	138
0	986370	673	125
0	987903	674	138
0	989525	675	155
0	991051	676	135
0	992566	677	158
0	994131	678	172
0	995505	679	141
0	996816	680	115
0	998355	681	154
0	999689	682	115
0	1000973	683	113
0	1002481	684	117
0	1003970	685	144
0	1005602	686	145
0	1007264	687	145
0	1008846	688	145
0	1010363	689	140
0	1011674	690	135
0	1013252	691	153
0	1014973	692	174
0	1016593	693	147
0	1018208	694	164
0	1019578	695	145
0	1020898	696	107
0	1022328	697	129
0	1023974	698	163
0	1025400	699	141
0	1027067	700	143
0	1028733	701	155
0	1030133	702	117
0	1031558	703	136
0	1032852	704	119
0	1034422	705	157
0	1035824	706	149
0	1037638	707	201
0	1039466	708	183
0	1040857	709	142
0	1042534	710	157
0	1043973	711	152
0	1045076	712	90
0	1046470	713	131
0	1047859	714	128
0	1049527	715	165
0	1050889	716	139
0	1052385	717	165
0	1053549	718	101
0	1055013	719	145
0	1056546	720	141
0	1058016	721	145
0	1059556	722	153
0	1060627	723	106
0	1061977	724	123
0	1063355	725	151
0	1064463	726	101
0	1065706	727	128
0	1067378	728	165
0	1068893	729	140
0	1070468	730	163
0	1071915	731	132
0	1073540	732	148
0	1074877	733	148
0	1076529	734	161
0	1077828	735	134
0	1079535	736	162
0	1081137	737	165
0	1082241	738	99
0	1083929	739	173
0	1085246	740	131
0	1086841	741	158
0	1088379	742	119
0	1089967	743	159
0	1091620	744	154
0	1093279	745	154
0	1094707	746	141
0	1096614	747	186
0	1098071	748	156
0	1099208	749	112
0	1100580	750	152
0	1101952	751	133
0	1103443	752	158
0	1104889	753	135
0	1106797	754	177
0	1108485	755	195
0	1109927	756	143
0	1111593	757	179
0	1112850	758	126
0	1114299	759	132
0	1115524	760	107
0	1117048	761	141
0	1118491	762	126
0	1120065	763	147
0	1121632	764	138
0	1123466	765	161
0	1124821	766	140
0	1126254	767	136
0	1127724	768	135
0	1129080	769	125
0	1130694	770	180
0	1132239	771	154
0	1134084	772	184
0	1135531	773	142
0	1137276	774	172
0	1138615	775	142
0	1140161	776	133
0	1141493	777	135
0	1143242	778	140
0	1144728	779	153
0	1146088	780	130
0	1147363	781	122
0	1148625	782	127
0	1149795	783	117
0	1151003	784	113
0	1152555	785	149
0	1154086	786	150
0	1155342	787	109
0	1156973	788	154
0	1158245	789	119
0	1159617	790	118
0	1161035	791	135
0	1162585	792	153
0	1163916	793	108
0	1165066	794	129
0	1166646	795	169
0	1168197	796	158
0	1169500	797	122
0	1171274	798	173
0	1173000	799	187
0	1174568	800	158
0	1176064	801	157
0	1177399	802	116
0	1179021	803	149
0	1180557	804	157
0	1182167	805	159
0	1183663	806	137
0	1184976	807	124
0	1186402	808	147
0	1188213	809	174
0	1189431	810	114
0	1190618	811	114
0	1192260	812	167
0	1193701	813	134
0	1195494	814	166
0	1197161	815	162
0	1198492	816	158
0	1199937	817	122
0	1201245	818	127
0	1202776	819	142
0	1204036	820	128
0	1205482	821	135
0	1206900	822	141
0	1208139	823	110
0	1209710	824	160
0	1211154	825	133
0	1212474	826	143
0	1213957	827	130
0	1215641	828	157
0	1217406	829	168
0	1218962	830	130
0	1220581	831	178
0	1221995	832	127
0	1223163	833	105
0	1224724	834	150
0	1226317	835	146
0	1228076	836	172
0	1229180	837	111
0	1230735	838	154
0	1232318	839	136
0	1233934	840	158
0	1235465	841	150
0	1237157	842	163
0	1238688	843	144
0	1240282	844	175
0	1241944	845	181
0	1243649	846	178
0	1244856	847	124
0	1246342	848	131
0	1247677	849	118
0	1249025	850	134
0	1250190	851	106
0	1251742	852	149
0	1253327	853	164
0	1255050	854	160
0	1256332	855	119
0	1257648	856	125
0	1259301	857	168
0	1260804	858	132
0	1262550	859	177
0	1264221	860	169
0	1265875	861	149
0	1267322	862	142
0	1268710	863	143
0	1270566	864	191
0	1271863	865	114
0	1273456	866	144
0	1274507	867	110
0	1275861	868	123
0	1277452	869	164
0	1279171	870	173
0	1280760	871	146
0	1282204	872	141
0	1283579	873	114
0	1284854	874	124
0	1286269	875	128
0	1287943	876	147
0	1289386	877	128
0	1290908	878	133
0	1292399	879	138
0	1293887	880	148
0	1295430	881	158
0	1297002	882	147
0	1298526	883	153
0	1299832	884	121
0	1301571	885	178
0	1302984	886	132
0	1304474	887	131
0	1305618	888	101
0	1307153	889	146
0	1308888	890	153
0	1310204	891	137
0	1311672	892	149
0	1313361	893	160
0	1314614	894	116
0	1315698	895	97
0	1316987	896	128
0	1318299	897	125
0	1319433	898	103
0	1321068	899	158
0	1322359	900	99
0	1323894	901	128
0	1325490	902	157
0	1327109	903	168
0	1328752	904	162
0	1330274	905	149
0	1331897	906	174
0	1333333	907	133
0	1334713	908	123
0	1336148	909	134
0	1337419	910	107
0	1338867	911	117
0	1340393	912	133
0	1341806	913	146
0	1343604	914	191
0	1345447	915	184
0	1347453	916	205
0	1349041	917	163
0	1350594	918	174
0	1351928	919	135
0	1353497	920	149
0	1354959	921	125
0	1356350	922	134
0	1357951	923	132
0	1359348	924	140
0	1360997	925	166
0	1362607	926	143
0	1364339	927	165
0	1365761	928	149
0	1367134	929	128
0	1368372	930	110
0	1370016	931	177
0	1371418	932	125
0	1372688	933	119
0	1374016	934	111
0	1375676	935	157
0	1377095	936	124
0	1378816	937	154
0	1379971	938	112
0	1381700	939	154
0	1383104	940	140
0	1384379	941	114
0	1385594	942	114
0	1386936	943	135
0	1388213	944	114
0	1389783	945	153
0	1391094	946	118
0	1392384	947	125
0	1393751	948	140
0	1395196	949	144
0	1396570	950	146
0	1398015	951	130
0	1399528	952	134
0	1400705	953	96
0	1402428	954	150
0	1403971	955	154
0	1405308	956	124
0	1406908	957	163
0	1408343	958	144
0	1410134	959	170
0	1411461	960	125
0	1412693	961	105
0	1413978	962	116
0	1415588	963	159
0	1417091	964	162
0	1418544	965	132
0	1420154	966	161
0	1421673	967	132
0	1423171	968	151
0	1424879	969	165
0	1426294	970	119
0	1428062	971	159
0	1429623	972	160
0	1431227	973	163
0	1432487	974	121
0	1433672	975	90
0	1434939	976	86
0	1436481	977	135
0	1437855	978	127
0	1439278	979	128
0	1440658	980	130
0	1442190	981	145
0	1443824	982	159
0	1445363	983	142
0	1446775	984	117
0	1448246	985	142
0	1449682	986	129
0	1451016	987	135
0	1452359	988	130
0	1453879	989	145
0	1455414	990	161
0	1456929	991	144
0	1458215	992	125
0	1459697	993	143
0	1461231	994	159
0	1462418	995	114
0	1464070	996	173
0	1465454	997	143
0	1466962	998	137
0	1468392	999	153
0	1469985	1000	139
0	1471570	1001	166
0	1473150	1002	159
0	1474467	1003	106
0	1476062	1004	132
0	1477823	1005	176
0	1479188	1006	144
0	1480864	1007	167
0	1482442	1008	145
0	1484209	1009	176
0	1485875	1010	154
0	1487547	1011	167
0	1489116	1012	152
0	1490303	1013	116
0	1491653	1014	133
0	1493543	1015	175
0	1494790	1016	110
0	1496125	1017	134
0	1498030	1018	178
0	1499215	1019	114
0	1500330	1020	89
0	1501686	1021	121
0	1503380	1022	151
0	1504844	1023	137
0	1506325	1024	144
0	1507957	1025	155
0	1509387	1026	137
0	1511150	1027	194
0	1512491	1028	142
0	1514060	1029	150
0	1515402	1030	116
0	1516577	1031	106
0	1517886	1032	118
0	1519485	1033	146
0	1520833	1034	117
0	1521931	1035	99
0	1523819	1036	179
0	1525741	1037	181
0	1527158	1038	138
0	1528568	1039	131
0	1530004	1040	134
0	1531561	1041	144
0	1533001	1042	135
0	1534377	1043	121
0	1535655	1044	117
0	1537080	1045	136
0	1538367	1046	118
0	1539673	1047	125
0	1540942	1048	126
0	1542099	1049	106
0	1543646	1050	153
0	1544894	1051	119
0	1546556	1052	163
0	1547914	1053	129
0	1549592	1054	175
0	1550916	1055	123
0	1552134	1056	119
0	1553756	1057	157
0	1555034	1058	125
0	1556438	1059	125
0	1557719	1060	119
0	1558895	1061	113
0	1560703	1062	161
0	1561742	1063	90
0	1563059	1064	128
0	1564552	1065	142
0	1565848	1066	111
0	1567150	1067	127
0	1568365	1068	96
0	1569717	1069	119
0	1570879	1070	110
0	1572177	1071	107
0	1573438	1072	120
0	1574817	1073	122
0	1576350	1074	154
0	1577828	1075	135
0	1578991	1076	106
0	1580960	1077	184
0	1582396	1078	139
0	1584206	1079	161
0	1585913	1080	179
0	1587328	1081	148
0	1589037	1082	170
0	1590434	1083	136
0	1591787	1084	132
0	1593079	1085	121
0	1594581	1086	147
0	1595699	1087	111
0	1597325	1088	151
0	1598943	1089	159
0	1600293	1090	126
0	1601872	1091	158
0	1603340	1092	121
0	1604677	1093	124
0	1606126	1094	136
0	1607284	1095	105
0	1609003	1096	152
0	1610249	1097	123
0	1611743	1098	127
0	1612870	1099	94
0	1614388	1100	142
0	1615635	1101	116
0	1617191	1102	135
0	1618700	1103	144
0	1620178	1104	147
0	1621867	1105	172
0	1623226	1106	130
0	1624637	1107	128
0	1626053	1108	143
0	1627257	1109	109
0	1628913	1110	176
0	1630322	1111	148
0	1631623	1112	124
0	1632998	1113	134
0	1634233	1114	118
0	1635515	1115	127
0	1636761	1116	131
0	1638016	1117	106
0	1639286	1118	129
0	1640707	1119	134
0	1642038	1120	123
0	1643782	1121	175
0	1645085	1122	110
0	1646421	1123	125
0	1647776	1124	128
0	1649094	1125	121
0	1650634	1126	141
0	1652066	1127	125
0	1653446	1128	147
0	1655270	1129	167
0	1656919	1130	149
0	1658322	1131	132
0	1660108	1132	167
0	1661602	1133	139
0	1663210	1134	145
0	1664715	1135	148
0	1666062	1136	128
0	1667431	1137	154
0	1668911	1138	139
0	1670279	1139	131
0	1671768	1140	127
0	1673274	1141	151
0	1674782	1142	127
0	1676351	1143	152
0	1677574	1144	108
0	1679330	1145	173
0	1680928	1146	131
0	1682249	1147	124
0	1684288	1148	214
0	1685550	1149	121
0	1686714	1150	102
0	1688320	1151	159
0	1689878	1152	151
0	1691326	1153	129
0	1692819	1154	166
0	1694444	1155	166
0	1695950	1156	137
0	1697471	1157	138
0	1698956	1158	152
0	1700415	1159	154
0	1702105	1160	168
0	1703765	1161	141
0	1705272	1162	138
0	1706587	1163	120
0	1708017	1164	127
0	1709586	1165	156
0	1711186	1166	149
0	1712378	1167	115
0	1713784	1168	133
0	1715112	1169	125
0	1716506	1170	134
0	1717862	1171	145
0	1719522	1172	165
0	1720981	1173	122
0	1722713	1174	173
0	1723950	1175	120
0	1725170	1176	113
0	1726769	1177	156
0	1728325	1178	145
0	1729611	1179	129
0	1730809	1180	110
0	1732346	1181	140
0	1733173	1182	68
0	1734639	1183	149
0	1735751	1184	113
0	1737260	1185	144
0	1738843	1186	154
0	1740220	1187	148
0	1741321	1188	96
0	1742709	1189	133
0	1744283	1190	154
0	1745863	1191	177
0	1747303	1192	139
0	1748702	1193	130
0	1750198	1194	131
0	1751766	1195	145
0	1753091	1196	128
0	1754610	1197	146
0	1756190	1198	153
0	1757531	1199	116
0	1759146	1200	163
0	1760688	1201	145
0	1762080	1202	145
0	1763605	1203	140
0	1764604	1204	86
0	1766104	1205	149
0	1767634	1206	143
0	1768866	1207	127
0	1770129	1208	124
0	1771608	1209	144
0	1773012	1210	138
0	1774750	1211	161
0	1776239	1212	144
0	1777764	1213	146
0	1779113	1214	140
0	1780601	1215	137
0	1781829	1216	105
0	1783182	1217	120
0	1784569	1218	142
0	1785884	1219	114
0	1787228	1220	138
0	1788652	1221	135
0	1790492	1222	189
0	1792234	1223	171
0	1793701	1224	158
0	1795196	1225	144
0	1796652	1226	123
0	1798036	1227	141
0	1799226	1228	99
0	1800373	1229	122
0	1801763	1230	142
0	1803141	1231	123
0	1804551	1232	141
0	1806374	1233	170
0	1808354	1234	203
0	1809973	1235	166
0	1811420	1236	140
0	1812876	1237	163
0	1814526	1238	151
0	1816101	1239	160
0	1817175	1240	92
0	1818835	1241	171
0	1820148	1242	134
0	1821623	1243	144
0	1822968	1244	130
0	1824243	1245	110
0	1825727	1246	133
0	1827220	1247	132
0	1828503	1248	132
0	1830052	1249	158
0	1831452	1250	128
0	1832974	1251	143
0	1834418	1252	143
0	1836098	1253	135
0	1837602	1254	141
0	1839142	1255	157
0	1840952	1256	187
0	1842241	1257	128
0	1843518	1258	124
0	1845081	1259	150
0	1846439	1260	120
0	1847956	1261	160
0	1849439	1262	142
0	1850951	1263	151
0	1852506	1264	146
0	1854073	1265	154
0	1855478	1266	140
0	1856866	1267	141
0	1858291	1268	132
0	1859651	1269	137
0	1861062	1270	133
0	1862302	1271	125
0	1863730	1272	121
0	1864950	1273	109
0	1866372	1274	143
0	1867703	1275	154
0	1868782	1276	88
0	1869717	1277	100
0	1871329	1278	155
0	1872759	1279	137
0	1874327	1280	152
0	1875770	1281	134
0	1877156	1282	139
0	1878153	1283	84
0	1879401	1284	117
0	1880976	1285	162
0	1882507	1286	148
0	1883732	1287	112
0	1885360	1288	143
0	1886924	1289	157
0	1888631	1290	159
0	1890287	1291	171
0	1891801	1292	147
0	1893457	1293	169
0	1894697	1294	93
0	1896490	1295	184
0	1897920	1296	139
0	1899399	1297	162
0	1901017	1298	131
0	1902715	1299	147
0	1904173	1300	138
0	1905615	1301	149
0	1906820	1302	122
0	1908423	1303	166
0	1909698	1304	120
0	1911198	1305	151
0	1912392	1306	115
0	1913862	1307	151
0	1915384	1308	141
0	1916635	1309	116
0	1918273	1310	150
0	1919509	1311	133
0	1920777	1312	117
0	1922419	1313	167
0	1924145	1314	181
0	1925150	1315	98
0	1926675	1316	156
0	1928297	1317	163
0	1929822	1318	164
0	1931258	1319	133
0	1932797	1320	147
0	1934355	1321	149
0	1935683	1322	125
0	1937303	1323	157
0	1938802	1324	158
0	1940407	1325	160
0	1941642	1326	126
0	1943081	1327	138
0	1944591	1328	155
0	1946060	1329	128
0	1947562	1330	152
0	1949117	1331	160
0	1950794	1332	190
0	1951920	1333	89
0	1953231	1334	118
0	1954964	1335	168
0	1956385	1336	132
0	1957708	1337	128
0	1959245	1338	162
0	1960911	1339	151
0	1962225	1340	118
0	1963417	1341	125
0	1964971	1342	155
0	1966394	1343	134
0	1967728	1344	131
0	1969165	1345	136
0	1970712	1346	134
0	1972709	1347	204
0	1974303	1348	143
0	1975741	1349	147
0	1977288	1350	169
0	1978677	1351	136
0	1980107	1352	125
0	1981914	1353	168
0	1983392	1354	141
0	1984792	1355	131
0	1986239	1356	142
0	1987863	1357	147
0	1989237	1358	125
0	1990653	1359	137
0	1992374	1360	175
0	1993720	1361	135
0	1995423	1362	168
0	1996923	1363	131
0	1998512	1364	156
0	1999645	1365	104
0	2001128	1366	160
0	2002790	1367	141
0	2004105	1368	126
0	2005715	1369	153
0	2007255	1370	138
0	2008930	1371	178
0	2010603	1372	168
0	2012251	1373	161
0	2014002	1374	150
0	2015183	1375	88
0	2016747	1376	137
0	2018281	1377	157
0	2020268	1378	202
0	2021586	1379	117
0	2022979	1380	127
0	2023961	1381	95
0	2025048	1382	98
0	2026258	1383	119
0	2027764	1384	157
0	2029212	1385	137
0	2030572	1386	139
0	2032134	1387	167
0	2033642	1388	133
0	2034982	1389	119
0	2036606	1390	162
0	2038143	1391	176
0	2039879	1392	157
0	2041320	1393	144
0	2042796	1394	143
0	2044597	1395	194
0	2045920	1396	130
0	2047048	1397	109
0	2048365	1398	124
0	2049598	1399	112
0	2050983	1400	115
0	2052170	1401	106
0	2053642	1402	145
0	2055208	1403	155
0	2056802	1404	159
0	2057756	1405	97
0	2059122	1406	133
0	2060753	1407	152
0	2062347	1408	181
0	2063738	1409	126
0	2065803	1410	197
0	2067741	1411	193
0	2069482	1412	174
0	2070954	1413	147
0	2072456	1414	135
0	2073616	1415	101
0	2075200	1416	153
0	2076630	1417	139
0	2077889	1418	122
0	2079331	1419	127
0	2080577	1420	122
0	2082094	1421	150
0	2083745	1422	172
0	2085067	1423	133
0	2086476	1424	138
0	2087882	1425	131
0	2088943	1426	102
0	2090564	1427	148
0	2092134	1428	157
0	2093353	1429	106
0	2095216	1430	187
0	2097047	1431	186
0	2098384	1432	122
0	2099865	1433	144
0	2101098	1434	98
0	2102532	1435	133
0	2104188	1436	161
0	2105538	1437	131
0	2107119	1438	156
0	2108352	1439	114
0	2109638	1440	116
0	2111173	1441	144
0	2112572	1442	132
0	2113612	1443	97
0	2114778	1444	111
0	2116245	1445	152
0	2117766	1446	138
0	2119105	1447	108
0	2120544	1448	148
0	2121988	1449	145
0	2123368	1450	152
0	2124554	1451	109
0	2125646	1452	109
0	2127223	1453	140
0	2128597	1454	127
0	2130154	1455	136
0	2131623	1456	134
0	2133428	1457	172
0	2134774	1458	131
0	2136097	1459	98
0	2137452	1460	125
0	2138600	1461	113
0	2140166	1462	147
0	2141890	1463	161
0	2143222	1464	133
0	2144843	1465	176
0	2145889	1466	99
0	2147200	1467	126
0	2148903	1468	136
0	2150467	1469	147
0	2152080	1470	141
0	2153463	1471	130
0	2154944	1472	136
0	2156476	1473	161
0	2157654	1474	117
0	2159247	1475	138
0	2160869	1476	141
0	2162380	1477	142
0	2163809	1478	132
0	2165467	1479	163
0	2167221	1480	166
0	2168900	1481	162
0	2170416	1482	147
0	2172139	1483	154
0	2173204	1484	104
0	2174676	1485	155
0	2176394	1486	159
0	2177907	1487	144
0	2179904	1488	188
0	2181350	1489	149
0	2182666	1490	114
0	2184315	1491	140
0	2186396	1492	200
0	2187931	1493	144
0	2189553	1494	141
0	2191194	1495	168
0	2192942	1496	185
0	2194257	1497	118
0	2195970	1498	176
0	2197740	1499	175
0	2199606	1500	188
0	2201178	1501	147
0	2202701	1502	144
0	2204137	1503	139
0	2205542	1504	120
0	2206813	1505	132
0	2208069	1506	109
0	2209733	1507	151
0	2211134	1508	140
0	2212439	1509	124
0	2213790	1510	121
0	2215388	1511	139
0	2217343	1512	198
0	2218622	1513	124
0	2220214	1514	151
0	2221410	1515	123
0	2222714	1516	127
0	2224148	1517	115
0	2225483	1518	130
0	2226910	1519	134
0	2228302	1520	142
0	2230009	1521	156
0	2231685	1522	161
0	2233107	1523	145
0	2234509	1524	125
0	2236077	1525	129
0	2237274	1526	112
0	2238830	1527	167
0	2240170	1528	133
0	2241479	1529	108
0	2243062	1530	157
0	2244522	1531	147
0	2245700	1532	109
0	2247123	1533	122
0	2248335	1534	111
0	2249846	1535	150
0	2251085	1536	126
0	2252802	1537	164
0	2254199	1538	116
0	2255910	1539	186
0	2257090	1540	104
0	2258553	1541	140
0	2259857	1542	137
0	2261339	1543	147
0	2262923	1544	167
0	2264522	1545	138
0	2265929	1546	120
0	2267426	1547	132
0	2268825	1548	148
0	2270447	1549	147
0	2271922	1550	145
0	2273337	1551	134
0	2274635	1552	131
0	2276050	1553	142
0	2277414	1554	139
0	2278794	1555	115
0	2280281	1556	154
0	2281441	1557	109
0	2282939	1558	139
0	2284345	1559	151
0	2285622	1560	123
0	2287440	1561	187
0	2289105	1562	164
0	2290602	1563	152
0	2292204	1564	157
0	2293638	1565	143
0	2295321	1566	152
0	2296868	1567	160
0	2298175	1568	122
0	2299484	1569	128
0	2300965	1570	143
0	2302592	1571	152
0	2304015	1572	138
0	2305331	1573	139
0	2306508	1574	110
0	2307934	1575	137
0	2309277	1576	146
0	2310684	1577	128
0	2312497	1578	172
0	2313919	1579	137
0	2315464	1580	137
0	2317019	1581	152
0	2318288	1582	108
0	2319501	1583	112
0	2320948	1584	152
0	2322629	1585	172
0	2324325	1586	177
0	2325683	1587	111
0	2327040	1588	132
0	2328605	1589	132
0	2330089	1590	156
0	2331344	1591	114
0	2333189	1592	186
0	2334800	1593	156
0	2336261	1594	136
0	2337812	1595	146
0	2339405	1596	152
0	2341169	1597	189
0	2342850	1598	160
0	2344160	1599	115
0	2345538	1600	134
0	2346723	1601	114
0	2348373	1602	161
0	2349945	1603	149
0	2351301	1604	141
0	2353142	1605	184
0	2354779	1606	154
0	2356672	1607	192
0	2358077	1608	138
0	2359939	1609	179
0	2361564	1610	175
0	2363215	1611	148
0	2364456	1612	106
0	2366020	1613	167
0	2367638	1614	161