version 3
run SimulationTime-343-20240107-16:19:12-17992
attr configname SimulationTime
attr datetime 20240107-16:19:12
attr datetimef 20240107-161912
attr experiment SimulationTime
attr inifile omnetpp.ini
attr iterationvars ""
attr iterationvarsd ""
attr iterationvarsf ""
attr measurement ""
attr network System
attr processid 17992
attr repetition 343
attr replication #343
attr resultdir results
attr runnumber 343
attr seedset 343
config **.cpu.rate 1000
config **.hd.rateProcessing 250
config **.webServer.web_server_rate 100
config **.p1 0.35
config **.p2 0.40
config network System
config num-rngs 4
config **.cpu.rng-0 0
config **.cpu.rng-1 1
config **.hd.rng-0 2
config **.webServer.rng-0 3
config repeat 500
config seed-set 343
config sim-time-limit 10000s
config **.client.numClients 40

vector 0 System.server.cpu requestCounterStat:vector ETV
attr recordingmode vector
attr source requestCounter
vector 1 System.server.hd utilizationHdStat:vector ETV
attr recordingmode vector
attr source utilizationHd
vector 2 System.server.cpu utilizationCpuStat:vector ETV
attr recordingmode vector
attr source utilizationCpu
vector 3 System.webServer utilizationWsStat:vector ETV
attr recordingmode vector
attr source utilizationWs
0	1729	1	160
0	3270	2	146
0	4493	3	108
0	5568	4	92
0	7073	5	134
0	8956	6	194
0	10195	7	118
0	11890	8	158
0	13148	9	127
0	14473	10	121
0	15839	11	153
0	17271	12	119
0	18808	13	162
0	20038	14	115
0	21418	15	137
0	22888	16	133
0	24343	17	140
0	25515	18	113
0	26951	19	145
0	28475	20	148
0	29749	21	115
0	31151	22	121
0	32736	23	142
0	33962	24	107
0	35068	25	107
0	36504	26	135
0	37907	27	142
0	39479	28	155
0	40695	29	117
0	42516	30	187
0	43695	31	108
0	45136	32	138
0	46490	33	119
0	48188	34	175
0	49811	35	152
0	51305	36	143
0	53211	37	179
0	54570	38	146
0	55966	39	147
0	57346	40	128
0	58737	41	128
0	60073	42	131
0	61227	43	97
0	62675	44	143
0	64263	45	145
0	65590	46	136
0	67234	47	151
0	68702	48	145
0	69985	49	138
0	71796	50	185
0	73329	51	172
0	75026	52	182
0	76655	53	154
0	78039	54	139
0	79500	55	144
0	81188	56	179
0	82615	57	128
0	83874	58	116
0	85040	59	95
0	86681	60	149
0	88099	61	131
0	89595	62	133
0	91107	63	147
0	92607	64	151
0	93873	65	129
0	95398	66	156
0	96908	67	139
0	98361	68	140
0	99934	69	156
0	101207	70	129
0	102751	71	153
0	104213	72	135
0	105750	73	158
0	106898	74	93
0	108481	75	154
0	110079	76	147
0	111956	77	194
0	113396	78	119
0	115088	79	141
0	116227	80	91
0	117833	81	161
0	119446	82	176
0	120712	83	105
0	121785	84	98
0	123467	85	159
0	124754	86	134
0	126410	87	149
0	128094	88	169
0	129528	89	117
0	131035	90	127
0	132327	91	97
0	133556	92	108
0	135189	93	148
0	136580	94	130
0	137832	95	117
0	139231	96	130
0	140668	97	144
0	142358	98	191
0	143916	99	153
0	145283	100	141
0	146872	101	166
0	148301	102	140
0	149666	103	132
0	151431	104	164
0	152827	105	147
0	154272	106	142
0	155616	107	137
0	157270	108	175
0	158921	109	164
0	159856	110	87
0	161163	111	112
0	162588	112	134
0	163861	113	128
0	165312	114	126
0	166779	115	128
0	168360	116	156
0	169977	117	152
0	171498	118	146
0	173051	119	160
0	174231	120	114
0	175853	121	169
0	177151	122	111
0	178906	123	158
0	180443	124	144
0	182010	125	166
0	183603	126	174
0	185048	127	124
0	186250	128	119
0	187616	129	127
0	188886	130	104
0	190174	131	119
0	191786	132	161
0	193401	133	164
0	194341	134	81
0	195967	135	155
0	197250	136	112
0	198677	137	154
0	200080	138	120
0	201570	139	135
0	202958	140	128
0	204614	141	161
0	206015	142	132
0	207588	143	150
0	208843	144	106
0	210239	145	123
0	211471	146	113
0	212747	147	125
0	214266	148	162
0	215777	149	138
0	217122	150	115
0	218652	151	131
0	220150	152	147
0	221565	153	130
0	222900	154	118
0	224184	155	109
0	225588	156	113
0	226938	157	139
0	228172	158	111
0	229368	159	113
0	230773	160	147
0	231955	161	105
0	233213	162	119
0	234784	163	152
0	236236	164	127
0	237833	165	142
0	239277	166	135
0	240930	167	150
0	242404	168	155
0	243853	169	144
0	245082	170	111
0	246487	171	120
0	247956	172	172
0	249170	173	105
0	250511	174	138
0	252229	175	175
0	253850	176	164
0	255116	177	105
0	256368	178	127
0	257667	179	126
0	258831	180	128
0	260575	181	177
0	262304	182	188
0	263896	183	141
0	265357	184	144
0	266907	185	155
0	268234	186	134
0	269716	187	139
0	271053	188	116
0	272786	189	156
0	274160	190	126
0	275694	191	155
0	277188	192	143
0	278505	193	120
0	279983	194	115
0	281533	195	147
0	282927	196	139
0	283989	197	99
0	285312	198	126
0	286593	199	116
0	287918	200	111
0	289343	201	150
0	290664	202	126
0	291850	203	109
0	293465	204	172
0	295238	205	178
0	296621	206	132
0	297883	207	119
0	299304	208	132
0	300814	209	135
0	302175	210	137
0	303421	211	105
0	304989	212	145
0	306264	213	120
0	307601	214	100
0	309441	215	195
0	311371	216	207
0	312748	217	126
0	314126	218	119
0	315576	219	137
0	317370	220	160
0	318830	221	135
0	320167	222	126
0	321570	223	128
0	323091	224	132
0	324722	225	138
0	326322	226	145
0	327735	227	132
0	329015	228	121
0	330267	229	125
0	331830	230	145
0	333004	231	113
0	334681	232	160
0	336124	233	138
0	337547	234	138
0	339155	235	151
0	340382	236	110
0	341600	237	113
0	342926	238	119
0	344089	239	120
0	345762	240	151
0	347100	241	135
0	348290	242	95
0	349663	243	124
0	350954	244	112
0	352335	245	132
0	353834	246	140
0	355395	247	158
0	357131	248	183
0	358451	249	117
0	359991	250	142
0	361394	251	148
0	362755	252	138
0	364049	253	117
0	365472	254	154
0	366769	255	124
0	368072	256	132
0	369376	257	131
0	370544	258	101
0	372063	259	154
0	373284	260	113
0	374776	261	153
0	376434	262	161
0	377970	263	127
0	379354	264	143
0	380733	265	132
0	382343	266	145
0	384304	267	198
0	386215	268	174
0	387643	269	115
0	389157	270	170
0	390765	271	161
0	392170	272	130
0	393906	273	169
0	395487	274	162
0	396679	275	109
0	398293	276	157
0	400140	277	180
0	401449	278	126
0	402921	279	143
0	404326	280	119
0	405884	281	159
0	407060	282	109
0	408582	283	159
0	409768	284	115
0	411287	285	148
0	412379	286	83
0	413813	287	125
0	415424	288	164
0	416493	289	94
0	418160	290	165
0	419473	291	138
0	421088	292	158
0	422432	293	123
0	424163	294	166
0	425857	295	165
0	427312	296	140
0	428633	297	134
0	430332	298	166
0	431975	299	152
0	433362	300	123
0	434968	301	165
0	436278	302	121
0	437693	303	132
0	439000	304	130
0	440592	305	157
0	442154	306	159
0	443713	307	136
0	445150	308	148
0	446398	309	117
0	447792	310	130
0	449531	311	182
0	451289	312	175
0	452802	313	128
0	454132	314	135
0	455588	315	153
0	457214	316	169
0	458562	317	131
0	459531	318	88
0	460721	319	109
0	462286	320	159
0	464086	321	177
0	465724	322	157
0	467298	323	131
0	468811	324	148
0	469878	325	82
0	471096	326	115
0	472814	327	165
0	474007	328	120
0	475456	329	134
0	477028	330	164
0	478432	331	121
0	480019	332	166
0	481209	333	107
0	482557	334	119
0	484219	335	153
0	485562	336	138
0	486942	337	133
0	488235	338	124
0	489587	339	117
0	491184	340	159
0	492942	341	177
0	494705	342	176
0	496476	343	168
0	497700	344	115
0	499403	345	172
0	501054	346	154
0	502533	347	160
0	503965	348	137
0	505349	349	129
0	507274	350	171
0	508846	351	143
0	510246	352	123
0	511800	353	149
0	513331	354	138
0	514668	355	146
0	516188	356	145
0	517628	357	141
0	519107	358	142
0	520459	359	129
0	521715	360	136
0	523280	361	152
0	524798	362	161
0	526133	363	126
0	527471	364	109
0	528838	365	118
0	530389	366	154
0	531753	367	129
0	533005	368	127
0	534270	369	126
0	535847	370	155
0	537476	371	144
0	538786	372	139
0	540207	373	158
0	541675	374	143
0	542792	375	108
0	544631	376	180
0	545681	377	99
0	547090	378	124
0	548661	379	144
0	550289	380	180
0	551573	381	109
0	552928	382	142
0	554564	383	145
0	555808	384	109
0	556918	385	99
0	558497	386	158
0	560096	387	166
0	561297	388	112
0	563012	389	170
0	564437	390	151
0	566005	391	157
0	567305	392	125
0	568863	393	171
0	570057	394	121
0	571789	395	173
0	573284	396	122
0	575010	397	157
0	576074	398	109
0	577394	399	129
0	578817	400	131
0	580047	401	109
0	581526	402	142
0	582720	403	119
0	584235	404	146
0	585585	405	139
0	586871	406	131
0	588514	407	162
0	589907	408	124
0	591239	409	125
0	592650	410	137
0	594072	411	117
0	595598	412	133
0	596974	413	121
0	598510	414	157
0	599777	415	120
0	601334	416	134
0	602923	417	152
0	604319	418	109
0	606118	419	182
0	607386	420	116
0	609150	421	181
0	610704	422	157
0	612377	423	166
0	613681	424	143
0	615100	425	128
0	616524	426	125
0	618133	427	144
0	619495	428	119
0	620852	429	124
0	622329	430	127
0	623650	431	134
0	625207	432	146
0	626652	433	132
0	628321	434	160
0	629733	435	129
0	631264	436	144
0	632445	437	98
0	634053	438	161
0	635656	439	158
0	637323	440	163
0	638663	441	119
0	640049	442	119
0	641730	443	164
0	643279	444	150
0	644700	445	132
0	646092	446	141
0	647843	447	176
0	649077	448	119
0	650481	449	141
0	651836	450	145
0	653130	451	133
0	654473	452	152
0	655972	453	142
0	657159	454	100
0	658430	455	110
0	659750	456	131
0	661213	457	140
0	662733	458	143
0	664343	459	145
0	665803	460	150
0	667122	461	126
0	668489	462	126
0	669692	463	110
0	670873	464	84
0	672508	465	166
0	673809	466	118
0	675646	467	190
0	677101	468	148
0	678803	469	165
0	680261	470	154
0	681877	471	137
0	683170	472	118
0	684691	473	154
0	686181	474	145
0	688015	475	201
0	689098	476	104
0	690479	477	140
0	691753	478	117
0	693549	479	153
0	695524	480	215
0	696827	481	120
0	698559	482	181
0	699879	483	137
0	701555	484	185
0	702772	485	104
0	704121	486	126
0	705506	487	120
0	707161	488	154
0	708554	489	136
0	710047	490	143
0	711803	491	167
0	713029	492	107
0	714775	493	175
0	716272	494	136
0	718024	495	171
0	719364	496	123
0	720948	497	145
0	722524	498	157
0	724011	499	154
0	725236	500	103
0	726917	501	156
0	728203	502	115
0	729807	503	137
0	731212	504	144
0	732419	505	116
0	733606	506	96
0	735040	507	125
0	736698	508	173
0	738319	509	138
0	739648	510	119
0	741310	511	165
0	742697	512	112
0	744390	513	172
0	745862	514	159
0	747255	515	132
0	748734	516	138
0	750480	517	171
0	751901	518	138
0	753224	519	118
0	754751	520	151
0	756490	521	162
0	758154	522	167
0	759435	523	122
0	760649	524	131
0	762026	525	130
0	763300	526	125
0	764964	527	157
0	766306	528	131
0	767831	529	144
0	769047	530	112
0	770424	531	132
0	771611	532	96
0	772915	533	111
0	774227	534	117
0	776157	535	211
0	777649	536	151
0	778969	537	109
0	780049	538	99
0	781686	539	160
0	783049	540	137
0	784471	541	119
0	785654	542	98
0	786697	543	100
0	788100	544	120
0	789580	545	145
0	791112	546	159
0	792370	547	129
0	793868	548	143
0	795417	549	152
0	796925	550	158
0	798515	551	149
0	799830	552	126
0	801184	553	127
0	802722	554	147
0	803886	555	83
0	805187	556	116
0	806675	557	155
0	808185	558	143
0	809368	559	106
0	810497	560	111
0	811740	561	122
0	813109	562	132
0	814400	563	114
0	815954	564	151
0	817368	565	147
0	818835	566	134
0	820356	567	152
0	821905	568	164
0	823613	569	153
0	825139	570	142
0	826482	571	126
0	828132	572	151
0	829702	573	157
0	831457	574	172
0	833060	575	140
0	834643	576	152
0	836113	577	155
0	837704	578	154
0	839247	579	150
0	840933	580	168
0	842512	581	138
0	844225	582	164
0	845724	583	140
0	847315	584	158
0	848639	585	113
0	850249	586	163
0	851851	587	133
0	853302	588	134
0	854606	589	111
0	856147	590	155
0	857379	591	105
0	858784	592	130
0	860514	593	159
0	861853	594	132
0	863455	595	183
0	864927	596	149
0	866504	597	166
0	868321	598	170
0	870006	599	174
0	871340	600	126
0	872849	601	154
0	874081	602	119
0	875452	603	114
0	876791	604	124
0	878235	605	133
0	879786	606	130
0	881501	607	180
0	883032	608	160
0	884628	609	161
0	886243	610	157
0	888029	611	171
0	889393	612	123
0	891250	613	198
0	892890	614	165
0	894309	615	146
0	895984	616	158
0	897395	617	138
0	898479	618	107
0	900234	619	168
0	901707	620	123
0	903173	621	147
0	904195	622	105
0	905622	623	128
0	907178	624	163
0	908610	625	139
0	910457	626	170
0	911846	627	132
0	913096	628	127
0	914453	629	128
0	915625	630	104
0	917228	631	166
0	918834	632	159
0	920373	633	158
0	921729	634	121
0	923429	635	149
0	925122	636	176
0	926713	637	166
0	928178	638	132
0	929586	639	141
0	931020	640	154
0	932704	641	187
0	933994	642	113
0	935567	643	168
0	936821	644	103
0	938502	645	164
0	939327	646	72
0	940820	647	136
0	942189	648	134
0	943775	649	149
0	945024	650	113
0	946243	651	110
0	947555	652	127
0	948962	653	120
0	950391	654	114
0	952029	655	169
0	953351	656	117
0	954818	657	132
0	956213	658	122
0	957719	659	141
0	959156	660	153
0	960836	661	153
0	962246	662	141
0	963395	663	100
0	964535	664	107
0	965885	665	109
0	967462	666	134
0	968969	667	136
0	970215	668	113
0	971774	669	160
0	973504	670	182
0	975054	671	157
0	976493	672	132
0	978140	673	138
0	979643	674	142
0	981033	675	119
0	982472	676	134
0	984030	677	169
0	985724	678	157
0	987163	679	146
0	988699	680	128
0	989832	681	116
0	991122	682	123
0	992464	683	127
0	994057	684	164
0	995314	685	114
0	996755	686	130
0	998296	687	158
0	999691	688	148
0	1001312	689	140
0	1002669	690	117
0	1003798	691	98
0	1005059	692	136
0	1006302	693	104
0	1007819	694	142
0	1009207	695	125
0	1010328	696	100
0	1012228	697	189
0	1013974	698	167
0	1015472	699	151
0	1016845	700	143
0	1018146	701	120
0	1019469	702	122
0	1020234	703	64
0	1021774	704	153
0	1023286	705	143
0	1024605	706	124
0	1026091	707	143
0	1027627	708	157
0	1029160	709	148
0	1030754	710	170
0	1032435	711	160
0	1034003	712	145
0	1035232	713	112
0	1036737	714	148
0	1038236	715	134
0	1039697	716	156
0	1041003	717	127
0	1042533	718	149
0	1043838	719	122
0	1045505	720	177
0	1047180	721	170
0	1048571	722	142
0	1050074	723	150
0	1051685	724	152
0	1053243	725	155
0	1054649	726	125
0	1055787	727	105
0	1057222	728	126
0	1058607	729	130
0	1060396	730	195
0	1061847	731	146
0	1063199	732	109
0	1064362	733	114
0	1065821	734	138
0	1067517	735	157
0	1069256	736	176
0	1070804	737	135
0	1072232	738	145
0	1073761	739	136
0	1075287	740	152
0	1077086	741	196
0	1078861	742	166
0	1080460	743	148
0	1082022	744	153
0	1083484	745	135
0	1084768	746	133
0	1086517	747	172
0	1087769	748	109
0	1089486	749	160
0	1090664	750	104
0	1092020	751	115
0	1093054	752	87
0	1094721	753	174
0	1095807	754	111
0	1097560	755	192
0	1098754	756	107
0	1100217	757	150
0	1102006	758	156
0	1103403	759	132
0	1104858	760	133
0	1106358	761	153
0	1107777	762	138
0	1109104	763	114
0	1110718	764	163
0	1112629	765	196
0	1113895	766	101
0	1115259	767	131
0	1117013	768	165
0	1118556	769	138
0	1120357	770	179
0	1121956	771	158
0	1123274	772	129
0	1124668	773	117
0	1126274	774	147
0	1127828	775	147
0	1129188	776	117
0	1130148	777	77
0	1131388	778	97
0	1132858	779	151
0	1134239	780	129
0	1135657	781	139
0	1137343	782	149
0	1138589	783	111
0	1140074	784	136
0	1141653	785	142
0	1143301	786	161
0	1144788	787	146
0	1145904	788	93
0	1147535	789	170
0	1149067	790	162
0	1150465	791	125
0	1151713	792	113
0	1153415	793	157
0	1154870	794	132
0	1156666	795	199
0	1157874	796	127
0	1159445	797	146
0	1160536	798	102
0	1162211	799	172
0	1163633	800	132
0	1165121	801	157
0	1166788	802	168
0	1168032	803	117
0	1169660	804	177
0	1171209	805	154
0	1172694	806	164
0	1174361	807	166
0	1175662	808	118
0	1177134	809	155
0	1178511	810	135
0	1179972	811	136
0	1181286	812	127
0	1182652	813	123
0	1184213	814	164
0	1185432	815	112
0	1186723	816	120
0	1188039	817	123
0	1189474	818	140
0	1190899	819	124
0	1192240	820	123
0	1193752	821	149
0	1195315	822	144
0	1196759	823	147
0	1198318	824	166
0	1200041	825	160
0	1201766	826	166
0	1203398	827	165
0	1204589	828	106
0	1206046	829	144
0	1207605	830	157
0	1209085	831	143
0	1210476	832	136
0	1212069	833	160
0	1213374	834	116
0	1214539	835	118
0	1216091	836	151
0	1217823	837	161
0	1219196	838	126
0	1220941	839	178
0	1222089	840	98
0	1223692	841	164
0	1225218	842	147
0	1226868	843	177
0	1228470	844	155
0	1230044	845	151
0	1231409	846	126
0	1232779	847	141
0	1233980	848	120
0	1235781	849	180
0	1237406	850	157
0	1239179	851	168
0	1240854	852	154
0	1242496	853	163
0	1243743	854	110
0	1245578	855	158
0	1246913	856	106
0	1248389	857	141
0	1249774	858	136
0	1251449	859	190
0	1252771	860	118
0	1254273	861	141
0	1255921	862	161
0	1257553	863	163
0	1258957	864	125
0	1260553	865	141
0	1262264	866	178
0	1263782	867	151
0	1265062	868	121
0	1266465	869	126
0	1267815	870	120
0	1268972	871	108
0	1270734	872	175
0	1272092	873	131
0	1273171	874	88
0	1274744	875	168
0	1276178	876	131
0	1277611	877	132
0	1279258	878	158
0	1280898	879	129
0	1282092	880	98
0	1283857	881	194
0	1285032	882	96
0	1286336	883	119
0	1287676	884	131
0	1289348	885	181
0	1290883	886	138
0	1292292	887	138
0	1294024	888	175
0	1295518	889	121
0	1296813	890	123
0	1298200	891	130
0	1299444	892	121
0	1301161	893	160
0	1302858	894	168
0	1304107	895	116
0	1305561	896	131
0	1307089	897	141
0	1308463	898	131
0	1309796	899	128
0	1311301	900	143
0	1312648	901	122
0	1314022	902	117
0	1315582	903	171
0	1317397	904	170
0	1319034	905	144
0	1320721	906	174
0	1322288	907	158
0	1323779	908	158
0	1325071	909	129
0	1326587	910	136
0	1327980	911	116
0	1329070	912	103
0	1330785	913	174
0	1332073	914	131
0	1333318	915	108
0	1334885	916	148
0	1336034	917	104
0	1337510	918	139
0	1338979	919	138
0	1340522	920	133
0	1341653	921	114
0	1343135	922	131
0	1344958	923	182
0	1346310	924	117
0	1347852	925	135
0	1349494	926	131
0	1350896	927	123
0	1352506	928	153
0	1353699	929	108
0	1355309	930	146
0	1356388	931	90
0	1357667	932	132
0	1358912	933	116
0	1360635	934	168
0	1362247	935	163
0	1363639	936	141
0	1365324	937	154
0	1366706	938	131
0	1368283	939	152
0	1369859	940	146
0	1371195	941	131
0	1372779	942	147
0	1374303	943	163
0	1375752	944	130
0	1376936	945	113
0	1378291	946	124
0	1379773	947	149
0	1381125	948	113
0	1382544	949	142
0	1383952	950	136
0	1385085	951	96
0	1386349	952	121
0	1388043	953	159
0	1389339	954	129
0	1390906	955	170
0	1392493	956	174
0	1394144	957	166
0	1395434	958	119
0	1397029	959	146
0	1398832	960	151
0	1400537	961	170
0	1402052	962	178
0	1403480	963	129
0	1405231	964	186
0	1406850	965	150
0	1408398	966	145
0	1409613	967	114
0	1410977	968	135
0	1412567	969	133
0	1413781	970	114
0	1415204	971	132
0	1416812	972	137
0	1418187	973	134
0	1419624	974	126
0	1421048	975	137
0	1422258	976	111
0	1423691	977	124
0	1424955	978	121
0	1426282	979	126
0	1427690	980	138
0	1429256	981	149
0	1430696	982	149
0	1431891	983	110
0	1433144	984	108
0	1434402	985	119
0	1435752	986	129
0	1437424	987	143
0	1438806	988	131
0	1440439	989	148
0	1441944	990	151
0	1443471	991	148
0	1445122	992	164
0	1446687	993	148
0	1447991	994	133
0	1449560	995	148
0	1451254	996	165
0	1452484	997	127
0	1453813	998	114
0	1455539	999	171
0	1457204	1000	155
0	1458719	1001	146
0	1460210	1002	146
0	1461628	1003	127
0	1463085	1004	132
0	1464696	1005	150
0	1465814	1006	91
0	1466942	1007	113
0	1468187	1008	108
0	1469588	1009	134
0	1471122	1010	126
0	1472454	1011	135
0	1473995	1012	150
0	1475474	1013	144
0	1477088	1014	143
0	1478215	1015	96
0	1479559	1016	135
0	1481268	1017	152
0	1482716	1018	145
0	1484124	1019	129
0	1485410	1020	118
0	1486741	1021	118
0	1488397	1022	163
0	1489778	1023	126
0	1491298	1024	149
0	1492900	1025	139
0	1494540	1026	157
0	1495975	1027	142
0	1497639	1028	145
0	1499027	1029	127
0	1500647	1030	156
0	1501806	1031	88
0	1502955	1032	120
0	1504229	1033	123
0	1505768	1034	172
0	1507171	1035	128
0	1508721	1036	137
0	1510304	1037	156
0	1512068	1038	167
0	1513137	1039	80
0	1514420	1040	125
0	1515876	1041	143
0	1517194	1042	111
0	1518659	1043	136
0	1520207	1044	145
0	1521859	1045	173
0	1523429	1046	163
0	1525110	1047	172
0	1526545	1048	158
0	1528103	1049	147
0	1529727	1050	164
0	1531200	1051	144
0	1532445	1052	120
0	1534022	1053	150
0	1535719	1054	172
0	1536943	1055	123
0	1538306	1056	146
0	1539649	1057	126
0	1540947	1058	123
0	1542439	1059	149
0	1543832	1060	121
0	1545438	1061	159
0	1547174	1062	173
0	1548678	1063	141
0	1550294	1064	167
0	1551957	1065	182
0	1553354	1066	148
0	1554932	1067	149
0	1556445	1068	130
0	1557498	1069	96
0	1559021	1070	145
0	1560515	1071	143
0	1561950	1072	130
0	1563393	1073	136
0	1564711	1074	123
0	1566352	1075	142
0	1568261	1076	186
0	1569952	1077	176
0	1571432	1078	145
0	1572782	1079	131
0	1573951	1080	115
0	1575605	1081	169
0	1576872	1082	112
0	1578546	1083	159
0	1580170	1084	169
0	1581477	1085	110
0	1582820	1086	134
0	1584040	1087	133
0	1585471	1088	150
0	1587238	1089	190
0	1588724	1090	138
0	1590076	1091	129
0	1591775	1092	158
0	1593159	1093	123
0	1594297	1094	93
0	1595801	1095	141
0	1597257	1096	145
0	1598445	1097	125
0	1599887	1098	139
0	1601367	1099	133
0	1602995	1100	158
0	1604295	1101	129
0	1605925	1102	145
0	1607395	1103	151
0	1608565	1104	99
0	1609863	1105	113
0	1611487	1106	159
0	1612919	1107	113
0	1614755	1108	169
0	1616191	1109	147
0	1617633	1110	128
0	1619092	1111	138
0	1620676	1112	151
0	1622010	1113	117
0	1623986	1114	193
0	1625160	1115	105
0	1626472	1116	127
0	1628134	1117	171
0	1629493	1118	120
0	1631040	1119	174
0	1632569	1120	135
0	1633854	1121	118
0	1635392	1122	163
0	1636803	1123	138
0	1638245	1124	141
0	1639648	1125	132
0	1640972	1126	109
0	1642373	1127	126
0	1643902	1128	142
0	1645515	1129	164
0	1647029	1130	144
0	1648489	1131	127
0	1649672	1132	94
0	1651274	1133	147
0	1652656	1134	123
0	1653936	1135	109
0	1655429	1136	156
0	1656892	1137	126
0	1658422	1138	139
0	1659858	1139	145
0	1661676	1140	170
0	1663102	1141	129
0	1664558	1142	147
0	1666279	1143	160
0	1667640	1144	128
0	1669154	1145	151
0	1670573	1146	152
0	1672328	1147	170
0	1673888	1148	147
0	1675155	1149	112
0	1676609	1150	136
0	1678564	1151	178
0	1679780	1152	125
0	1681107	1153	130
0	1682682	1154	166
0	1684004	1155	135
0	1685637	1156	176
0	1687190	1157	184
0	1689086	1158	193
0	1690663	1159	162
0	1691974	1160	119
0	1693607	1161	178
0	1695502	1162	180
0	1696654	1163	103
0	1698126	1164	141
0	1699713	1165	156
0	1701200	1166	126
0	1702668	1167	141
0	1704118	1168	135
0	1705632	1169	145
0	1706983	1170	137
0	1708556	1171	150
0	1709847	1172	118
0	1711415	1173	149
0	1712553	1174	109
0	1713806	1175	114
0	1715464	1176	179
0	1717285	1177	184
0	1719129	1178	189
0	1720562	1179	144
0	1722250	1180	156
0	1723902	1181	163
0	1725319	1182	146
0	1726689	1183	127
0	1727897	1184	125
0	1729429	1185	151
0	1731151	1186	177
0	1732768	1187	166
0	1734170	1188	145
0	1735732	1189	159
0	1737249	1190	151
0	1738594	1191	118
0	1740422	1192	177
0	1741692	1193	113
0	1743163	1194	118
0	1744494	1195	134
0	1745935	1196	128
0	1747402	1197	142
0	1749200	1198	181
0	1750696	1199	143
0	1752245	1200	151
0	1753581	1201	135
0	1754754	1202	98
0	1756331	1203	160
0	1757671	1204	109
0	1759033	1205	123
0	1760818	1206	176
0	1762151	1207	124
0	1763535	1208	147
0	1765150	1209	158
0	1766649	1210	155
0	1768113	1211	137
0	1769753	1212	157
0	1771505	1213	181
0	1772702	1214	110
0	1774145	1215	176
0	1775479	1216	119
0	1777218	1217	172
0	1778618	1218	119
0	1780149	1219	144
0	1781874	1220	161
0	1783492	1221	145
0	1784974	1222	141
0	1786286	1223	137
0	1787743	1224	120
0	1789149	1225	129
0	1790679	1226	161
0	1792107	1227	137
0	1793590	1228	138
0	1795385	1229	182
0	1796948	1230	147
0	1798579	1231	152
0	1800034	1232	128
0	1801807	1233	166
0	1803381	1234	163
0	1804734	1235	120
0	1806528	1236	155
0	1807881	1237	128
0	1809171	1238	117
0	1810869	1239	149
0	1812267	1240	128
0	1813931	1241	161
0	1815580	1242	152
0	1817284	1243	171
0	1818621	1244	132
0	1820233	1245	169
0	1821592	1246	110
0	1823013	1247	120
0	1824538	1248	142
0	1826246	1249	157
0	1827811	1250	165
0	1829209	1251	147
0	1830951	1252	167
0	1832359	1253	145
0	1833851	1254	137
0	1835373	1255	139
0	1836655	1256	109
0	1838121	1257	125
0	1839311	1258	119
0	1840555	1259	109
0	1842131	1260	148
0	1843526	1261	132
0	1845281	1262	158
0	1846594	1263	114
0	1847854	1264	113
0	1849131	1265	124
0	1850361	1266	111
0	1852081	1267	173
0	1853546	1268	140
0	1855302	1269	177
0	1857040	1270	156
0	1858616	1271	183
0	1860001	1272	136
0	1861549	1273	161
0	1863375	1274	189
0	1864985	1275	149
0	1866534	1276	138
0	1867748	1277	117
0	1869207	1278	134
0	1870540	1279	140
0	1872113	1280	141
0	1873544	1281	138
0	1875446	1282	191
0	1877110	1283	163
0	1878613	1284	144
0	1880368	1285	160
0	1881983	1286	162
0	1883323	1287	135
0	1884910	1288	152
0	1886346	1289	141
0	1888003	1290	155
0	1889476	1291	132
0	1891081	1292	160
0	1892849	1293	171
0	1894325	1294	135
0	1895515	1295	111
0	1896771	1296	109
0	1898174	1297	130
0	1899502	1298	125
0	1901136	1299	159
0	1902598	1300	126
0	1904077	1301	122
0	1905033	1302	83
0	1906443	1303	137
0	1907566	1304	100
0	1909048	1305	135
0	1910539	1306	130
0	1911971	1307	139
0	1913477	1308	163
0	1915058	1309	170
0	1916225	1310	103
0	1917685	1311	135
0	1918983	1312	107
0	1920373	1313	141
0	1921884	1314	146
0	1923233	1315	136
0	1924540	1316	114
0	1926235	1317	162
0	1927578	1318	130
0	1929012	1319	143
0	1930085	1320	103
0	1931602	1321	160
0	1933005	1322	136
0	1934230	1323	110
0	1935725	1324	132
0	1936873	1325	117
0	1938309	1326	129
0	1939650	1327	142
0	1941086	1328	139
0	1942547	1329	142
0	1943958	1330	125
0	1945470	1331	155
0	1947233	1332	170
0	1948476	1333	116
0	1949598	1334	103
0	1950939	1335	106
0	1952500	1336	134
0	1954026	1337	151
0	1955686	1338	151
0	1957140	1339	125
0	1958557	1340	137
0	1960265	1341	175
0	1961633	1342	121
0	1963032	1343	118
0	1964707	1344	154
0	1965985	1345	115
0	1967604	1346	146
0	1968965	1347	142
0	1970499	1348	157
0	1971958	1349	142
0	1973368	1350	142
0	1974968	1351	145
0	1976627	1352	164
0	1978079	1353	159
0	1979467	1354	129
0	1981001	1355	149
0	1982582	1356	158
0	1984096	1357	131
0	1985408	1358	133
0	1986700	1359	129
0	1988077	1360	131
0	1989661	1361	145
0	1991240	1362	166
0	1992676	1363	131
0	1994115	1364	144
0	1995647	1365	153
0	1997045	1366	143
0	1998492	1367	132
0	2000203	1368	182
0	2001798	1369	136
0	2003509	1370	173
0	2005001	1371	129
0	2006277	1372	107
0	2007628	1373	146
0	2008882	1374	109
0	2010130	1375	111
0	2011710	1376	161
0	2013212	1377	149
0	2014508	1378	121
0	2016027	1379	150
0	2017463	1380	132
0	2018806	1381	116
0	2020183	1382	146
0	2021405	1383	115
0	2023001	1384	141
0	2024800	1385	184
0	2026247	1386	120
0	2027823	1387	149
0	2029113	1388	129
0	2030681	1389	145
0	2032282	1390	159
0	2033890	1391	151
0	2035435	1392	164
0	2036851	1393	141
0	2038486	1394	162
0	2039807	1395	124
0	2041326	1396	158
0	2042416	1397	101
0	2043412	1398	93
0	2045125	1399	170
0	2046645	1400	174
0	2048019	1401	117
0	2049427	1402	137
0	2050877	1403	129
0	2052280	1404	134
0	2053877	1405	150
0	2055258	1406	148
0	2056380	1407	89
0	2057856	1408	151
0	2059415	1409	152
0	2061038	1410	167
0	2062277	1411	128
0	2063852	1412	154
0	2065273	1413	130
0	2066538	1414	106
0	2068167	1415	148
0	2069678	1416	138
0	2071117	1417	128
0	2072725	1418	181
0	2074083	1419	123
0	2075654	1420	141
0	2077051	1421	136
0	2078465	1422	131
0	2079836	1423	128
0	2081403	1424	160
0	2082826	1425	134
0	2084711	1426	182
0	2086061	1427	127
0	2087630	1428	142
0	2089218	1429	151
0	2090775	1430	153
0	2092355	1431	141
0	2093759	1432	145
0	2095389	1433	163
0	2096908	1434	152
0	2098147	1435	114
0	2099635	1436	147
0	2101213	1437	153
0	2102969	1438	169
0	2104334	1439	118
0	2105412	1440	102
0	2106827	1441	134
0	2108357	1442	145
0	2109646	1443	138
0	2111073	1444	134
0	2112475	1445	123
0	2113724	1446	124
0	2114970	1447	107
0	2116597	1448	138
0	2118063	1449	155
0	2119465	1450	136
0	2120736	1451	120
0	2122145	1452	132
0	2123127	1453	87
0	2124642	1454	154
0	2125845	1455	122
0	2127704	1456	178
0	2129123	1457	138
0	2130688	1458	126
0	2132235	1459	142
0	2133887	1460	146
0	2135397	1461	143
0	2136675	1462	113
0	2138180	1463	158
0	2139689	1464	166
0	2141233	1465	151
0	2142729	1466	145
0	2144257	1467	161
0	2145453	1468	119
0	2147201	1469	179
0	2148567	1470	126
0	2150198	1471	172
0	2151872	1472	173
0	2153237	1473	116
0	2154654	1474	158
0	2156025	1475	126
0	2157502	1476	146
0	2159049	1477	142
0	2160294	1478	136
0	2161748	1479	139
0	2163320	1480	156
0	2164795	1481	142
0	2166390	1482	154
0	2167809	1483	150
0	2169016	1484	110
0	2170505	1485	150
0	2171839	1486	131
0	2173487	1487	173
0	2174978	1488	134
0	2176605	1489	164
0	2178057	1490	132
0	2179223	1491	119
0	2180548	1492	128
0	2182006	1493	115
0	2183726	1494	189
0	2184860	1495	97
0	2186384	1496	151
0	2187647	1497	120
0	2189224	1498	172
0	2190578	1499	133
0	2192099	1500	149
0	2193348	1501	108
0	2194895	1502	144
0	2196273	1503	137
0	2197492	1504	104
0	2198942	1505	143
0	2200459	1506	140
0	2201842	1507	134
0	2203296	1508	131
0	2204894	1509	171
0	2206376	1510	158
0	2208027	1511	160
0	2209295	1512	135
0	2210642	1513	134
0	2212053	1514	130
0	2213209	1515	97
0	2214799	1516	145
0	2216293	1517	185
0	2218000	1518	154
0	2219459	1519	134
0	2220950	1520	145
0	2222365	1521	114
0	2223900	1522	130
0	2225291	1523	146
0	2226623	1524	133
0	2227558	1525	86
0	2228922	1526	125
0	2230050	1527	103
0	2231548	1528	141
0	2233012	1529	117
0	2234753	1530	187
0	2236133	1531	121
0	2237514	1532	128
0	2239148	1533	155
0	2240715	1534	164
0	2241955	1535	123
0	2243345	1536	131
0	2245024	1537	160
0	2246484	1538	143
0	2248153	1539	160
0	2249504	1540	129
0	2250991	1541	122
0	2252379	1542	121
0	2253647	1543	113
0	2254992	1544	124
0	2256545	1545	136
0	2257794	1546	124
0	2259147	1547	140
0	2260615	1548	141
0	2261983	1549	117
0	2263321	1550	124
0	2264689	1551	133
0	2266284	1552	148
0	2267616	1553	121
0	2268984	1554	125
0	2270266	1555	119
0	2271686	1556	129
0	2272973	1557	116
0	2274532	1558	140
0	2276001	1559	130
0	2277727	1560	166
0	2279259	1561	135
0	2280865	1562	153
0	2282202	1563	122
0	2283898	1564	145
0	2285500	1565	167
0	2287395	1566	214
0	2288888	1567	140
0	2290434	1568	139
0	2291972	1569	135
0	2293428	1570	128
0	2295010	1571	159
0	2296465	1572	128
0	2297846	1573	140
0	2299528	1574	163
0	2301529	1575	198
0	2303199	1576	167
0	2304932	1577	150
0	2306327	1578	140
0	2307824	1579	140
0	2309245	1580	115
0	2310935	1581	165
0	2312406	1582	130
0	2314159	1583	170
0	2315917	1584	183
0	2317220	1585	132
0	2318606	1586	129
0	2319648	1587	107
0	2320977	1588	124
0	2322696	1589	172
0	2324741	1590	183
0	2326232	1591	140
0	2327641	1592	140
0	2328902	1593	116
0	2330397	1594	138
0	2331280	1595	72
0	2333071	1596	176
0	2334695	1597	145
0	2336399	1598	161
0	2338019	1599	137
0	2339263	1600	102
0	2340732	1601	152
0	2342197	1602	146
0	2343662	1603	148
0	2345039	1604	136
0	2346430	1605	138
0	2347779	1606	136
0	2348815	1607	93
0	2350178	1608	122
0	2351559	1609	124
0	2353056	1610	161
0	2354537	1611	134
0	2355916	1612	118
0	2357175	1613	98
0	2358825	1614	179
0	2360084	1615	128