version 3
run SimulationTime-450-20240108-13:24:45-11704
attr configname SimulationTime
attr datetime 20240108-13:24:45
attr datetimef 20240108-132445
attr experiment SimulationTime
attr inifile omnetpp.ini
attr iterationvars ""
attr iterationvarsd ""
attr iterationvarsf ""
attr measurement ""
attr network System
attr processid 11704
attr repetition 450
attr replication #450
attr resultdir results
attr runnumber 450
attr seedset 450
config **.cpu.rate 1000
config **.hd.rateProcessing 250
config **.webServer.web_server_rate 100
config **.p1 0.35
config **.p2 0.40
config network System
config num-rngs 4
config **.cpu.rng-0 0
config **.cpu.rng-1 1
config **.hd.rng-0 2
config **.webServer.rng-0 3
config repeat 500
config seed-set 450
config sim-time-limit 10000s
config **.client.numClients 40

vector 0 System.server.cpu requestCounterStat:vector ETV
attr recordingmode vector
attr source requestCounter
vector 1 System.server.hd utilizationHdStat:vector ETV
attr recordingmode vector
attr source utilizationHd
vector 2 System.server.cpu utilizationCpuStat:vector ETV
attr recordingmode vector
attr source utilizationCpu
vector 3 System.webServer utilizationWsStat:vector ETV
attr recordingmode vector
attr source utilizationWs
0	1912	1	185
0	3651	2	146
0	4829	3	109
0	6297	4	147
0	7874	5	160
0	9346	6	135
0	11077	7	158
0	12669	8	155
0	14565	9	197
0	15902	10	131
0	17317	11	142
0	19022	12	174
0	20781	13	190
0	22643	14	167
0	24008	15	130
0	25059	16	102
0	26745	17	175
0	28068	18	114
0	29594	19	131
0	31277	20	173
0	32826	21	144
0	34187	22	132
0	35931	23	167
0	37550	24	144
0	39031	25	136
0	40219	26	109
0	41638	27	144
0	42757	28	104
0	44200	29	126
0	45420	30	116
0	47018	31	147
0	48155	32	108
0	49638	33	146
0	50719	34	112
0	52327	35	157
0	53695	36	141
0	55061	37	115
0	56762	38	166
0	58414	39	151
0	59954	40	152
0	61903	41	198
0	62989	42	95
0	64335	43	131
0	65643	44	115
0	66858	45	130
0	68198	46	137
0	69431	47	100
0	70681	48	143
0	72490	49	172
0	74024	50	154
0	75564	51	167
0	77212	52	155
0	78687	53	138
0	80334	54	164
0	81762	55	135
0	83411	56	160
0	84985	57	143
0	86455	58	151
0	87853	59	127
0	89551	60	166
0	90899	61	127
0	92535	62	171
0	93991	63	131
0	95297	64	121
0	96400	65	114
0	97660	66	117
0	99108	67	137
0	100662	68	143
0	102132	69	137
0	103342	70	112
0	104629	71	114
0	105912	72	122
0	107525	73	152
0	109093	74	157
0	110420	75	102
0	111807	76	134
0	113245	77	127
0	114403	78	119
0	115981	79	159
0	117093	80	106
0	118670	81	140
0	120002	82	123
0	121268	83	117
0	122617	84	138
0	124163	85	155
0	125602	86	122
0	126656	87	85
0	128184	88	153
0	129600	89	113
0	131352	90	178
0	132871	91	164
0	134533	92	161
0	135888	93	128
0	137208	94	119
0	138454	95	105
0	139757	96	116
0	141053	97	121
0	142292	98	116
0	143567	99	124
0	144771	100	116
0	146376	101	158
0	147736	102	125
0	149565	103	182
0	150804	104	116
0	152280	105	139
0	153561	106	116
0	155126	107	152
0	156547	108	128
0	158476	109	194
0	159696	110	98
0	161310	111	163
0	162497	112	106
0	163959	113	131
0	165472	114	144
0	166836	115	137
0	168437	116	134
0	170373	117	207
0	171705	118	137
0	173383	119	167
0	174906	120	153
0	176425	121	150
0	177777	122	131
0	179115	123	129
0	180460	124	122
0	181818	125	135
0	183155	126	122
0	184810	127	158
0	186020	128	99
0	187605	129	158
0	189331	130	168
0	190783	131	133
0	192407	132	137
0	194075	133	161
0	195584	134	142
0	197040	135	141
0	198832	136	203
0	200420	137	141
0	202253	138	188
0	203793	139	161
0	204938	140	109
0	206500	141	157
0	207727	142	120
0	209418	143	176
0	210764	144	135
0	212249	145	152
0	213804	146	142
0	215358	147	159
0	216708	148	135
0	218209	149	144
0	219778	150	149
0	221349	151	144
0	222857	152	133
0	224212	153	120
0	225569	154	118
0	227079	155	145
0	228709	156	145
0	230124	157	136
0	231542	158	133
0	233174	159	157
0	234696	160	146
0	235902	161	111
0	237464	162	151
0	238905	163	148
0	240265	164	129
0	241982	165	166
0	243567	166	154
0	245094	167	146
0	246599	168	148
0	247928	169	120
0	249621	170	151
0	251204	171	142
0	252526	172	121
0	254150	173	167
0	255616	174	131
0	256969	175	116
0	258689	176	157
0	260200	177	154
0	261503	178	126
0	262934	179	142
0	264548	180	166
0	266226	181	171
0	267500	182	135
0	268858	183	123
0	270155	184	116
0	271775	185	157
0	273214	186	142
0	274756	187	145
0	275882	188	125
0	277352	189	143
0	278672	190	120
0	279924	191	117
0	281540	192	161
0	283055	193	148
0	284357	194	133
0	285958	195	156
0	287259	196	118
0	288587	197	119
0	290075	198	147
0	291733	199	177
0	293157	200	136
0	294657	201	123
0	295853	202	95
0	297126	203	108
0	298531	204	136
0	299986	205	138
0	301497	206	134
0	302906	207	150
0	304282	208	135
0	305856	209	169
0	307527	210	167
0	308963	211	145
0	310648	212	148
0	312095	213	138
0	313534	214	150
0	315056	215	159
0	316494	216	139
0	317902	217	149
0	319498	218	149
0	320644	219	87
0	322213	220	143
0	323733	221	137
0	325669	222	183
0	327149	223	143
0	328478	224	128
0	329779	225	120
0	331281	226	115
0	332583	227	139
0	333759	228	121
0	335448	229	156
0	336984	230	144
0	338730	231	167
0	340441	232	162
0	341949	233	141
0	343314	234	160
0	344902	235	145
0	346402	236	137
0	347739	237	128
0	349009	238	129
0	350403	239	129
0	351876	240	141
0	353485	241	140
0	355178	242	154
0	356625	243	134
0	357941	244	119
0	359569	245	151
0	360908	246	126
0	362422	247	163
0	363943	248	164
0	365420	249	116
0	366944	250	144
0	368385	251	126
0	369968	252	152
0	371198	253	137
0	372650	254	147
0	373925	255	114
0	375252	256	130
0	376721	257	128
0	378033	258	139
0	379445	259	151
0	380732	260	137
0	382091	261	146
0	383569	262	143
0	385340	263	172
0	386463	264	110
0	388261	265	181
0	390054	266	188
0	391715	267	170
0	392913	268	121
0	394396	269	142
0	396015	270	151
0	397332	271	138
0	398463	272	110
0	400114	273	162
0	401557	274	142
0	402959	275	135
0	404274	276	118
0	405907	277	156
0	407554	278	162
0	408985	279	130
0	410356	280	117
0	411782	281	131
0	413294	282	131
0	414721	283	130
0	416058	284	126
0	417585	285	154
0	419134	286	156
0	420669	287	150
0	422035	288	147
0	423183	289	101
0	424776	290	153
0	426238	291	153
0	427821	292	164
0	429283	293	125
0	431139	294	183
0	432779	295	177
0	433930	296	92
0	435461	297	152
0	436786	298	114
0	438068	299	131
0	439541	300	137
0	441211	301	135
0	442808	302	146
0	444459	303	170
0	445888	304	126
0	447328	305	133
0	448567	306	124
0	450036	307	144
0	451275	308	114
0	452745	309	127
0	454302	310	147
0	455679	311	136
0	457593	312	203
0	459196	313	144
0	460689	314	142
0	462257	315	143
0	463603	316	117
0	465038	317	126
0	466369	318	126
0	467813	319	137
0	469215	320	118
0	470449	321	109
0	472200	322	158
0	473492	323	129
0	474620	324	115
0	476308	325	153
0	477635	326	114
0	479464	327	172
0	481121	328	160
0	482677	329	139
0	484119	330	124
0	485861	331	191
0	487579	332	161
0	488862	333	114
0	489920	334	95
0	491524	335	159
0	492991	336	146
0	494040	337	96
0	495605	338	170
0	497274	339	156
0	498699	340	131
0	500391	341	171
0	501576	342	128
0	502977	343	124
0	504322	344	120
0	505708	345	115
0	507388	346	161
0	509063	347	164
0	510439	348	127
0	511858	349	146
0	513486	350	158
0	515023	351	156
0	516561	352	129
0	517797	353	125
0	519538	354	164
0	520992	355	159
0	522515	356	168
0	523852	357	130
0	525418	358	151
0	526668	359	115
0	527983	360	129
0	529643	361	179
0	531040	362	146
0	532772	363	169
0	534470	364	163
0	536226	365	165
0	537332	366	99
0	538868	367	141
0	540536	368	167
0	541890	369	145
0	542971	370	111
0	544042	371	98
0	545374	372	133
0	547123	373	160
0	548743	374	167
0	550219	375	115
0	552011	376	173
0	553391	377	141
0	554912	378	146
0	556353	379	138
0	557904	380	165
0	559433	381	132
0	560716	382	120
0	562012	383	131
0	563664	384	157
0	564964	385	113
0	566338	386	121
0	567842	387	151
0	569070	388	113
0	570441	389	154
0	571838	390	123
0	573040	391	121
0	574704	392	169
0	575920	393	123
0	577153	394	100
0	578756	395	170
0	579892	396	115
0	581364	397	147
0	582487	398	112
0	584145	399	173
0	585482	400	131
0	586814	401	133
0	588492	402	163
0	589854	403	135
0	591270	404	137
0	592548	405	123
0	594106	406	159
0	595408	407	109
0	597024	408	147
0	598228	409	123
0	599564	410	122
0	601077	411	144
0	602348	412	114
0	603816	413	145
0	605429	414	174
0	606428	415	86
0	607751	416	112
0	609189	417	119
0	610882	418	172
0	612441	419	136
0	614132	420	163
0	615452	421	135
0	616968	422	137
0	618180	423	111
0	619808	424	149
0	621236	425	141
0	622924	426	189
0	624520	427	137
0	626099	428	174
0	627643	429	147
0	629141	430	154
0	630454	431	118
0	631947	432	130
0	633533	433	173
0	635166	434	158
0	636677	435	158
0	637900	436	124
0	639319	437	146
0	641032	438	178
0	642248	439	109
0	643843	440	149
0	645231	441	123
0	646787	442	169
0	648205	443	153
0	649889	444	175
0	651152	445	122
0	653143	446	202
0	654606	447	146
0	656249	448	140
0	657853	449	147
0	659412	450	141
0	660594	451	101
0	662121	452	144
0	663603	453	159
0	665202	454	164
0	666718	455	151
0	668372	456	167
0	669624	457	121
0	671026	458	131
0	672235	459	120
0	673432	460	101
0	674735	461	128
0	676345	462	175
0	677599	463	111
0	678922	464	130
0	680343	465	132
0	681361	466	103
0	682921	467	147
0	684433	468	147
0	685392	469	84
0	686998	470	162
0	688227	471	106
0	689375	472	121
0	690985	473	143
0	692323	474	131
0	693721	475	139
0	695094	476	120
0	696890	477	181
0	698353	478	138
0	699925	479	157
0	701374	480	131
0	702769	481	112
0	704390	482	158
0	705941	483	156
0	707471	484	153
0	708818	485	114
0	710136	486	127
0	711729	487	156
0	713283	488	143
0	714881	489	155
0	716401	490	156
0	717542	491	116
0	719347	492	196
0	720665	493	117
0	722426	494	186
0	723805	495	134
0	725177	496	119
0	726667	497	139
0	728106	498	136
0	729663	499	154
0	731419	500	174
0	732889	501	127
0	734460	502	142
0	735597	503	102
0	736897	504	99
0	738213	505	117
0	739730	506	168
0	741266	507	147
0	742853	508	158
0	744254	509	128
0	745744	510	136
0	747285	511	150
0	748735	512	149
0	749792	513	84
0	751408	514	157
0	752948	515	169
0	754172	516	109
0	755453	517	112
0	756893	518	131
0	758135	519	123
0	759944	520	185
0	761472	521	143
0	762625	522	102
0	764054	523	124
0	765303	524	128
0	767012	525	164
0	768113	526	108
0	769893	527	175
0	771384	528	148
0	772821	529	144
0	774196	530	127
0	775471	531	124
0	776837	532	135
0	778327	533	139
0	779745	534	129
0	781232	535	140
0	782641	536	134
0	784273	537	159
0	785969	538	149
0	787784	539	172
0	789494	540	168
0	790868	541	129
0	792562	542	165
0	793934	543	127
0	795639	544	154
0	797190	545	146
0	798581	546	126
0	799901	547	113
0	801456	548	154
0	802854	549	131
0	804604	550	170
0	806180	551	153
0	807709	552	130
0	809076	553	122
0	810344	554	115
0	811926	555	143
0	813243	556	102
0	814668	557	138
0	816349	558	174
0	817995	559	165
0	819480	560	135
0	820766	561	117
0	822249	562	142
0	824164	563	208
0	825462	564	129
0	826963	565	170
0	828417	566	127
0	829807	567	123
0	831314	568	154
0	832639	569	128
0	834149	570	150
0	835731	571	161
0	837147	572	135
0	838633	573	127
0	839997	574	113
0	841519	575	129
0	843024	576	154
0	844464	577	123
0	845748	578	129
0	847201	579	122
0	848672	580	121
0	850090	581	147
0	851620	582	139
0	852969	583	124
0	854165	584	115
0	855414	585	116
0	857177	586	176
0	858631	587	123
0	859724	588	104
0	860949	589	116
0	862466	590	141
0	863719	591	106
0	865574	592	194
0	867082	593	127
0	868605	594	148
0	870034	595	144
0	871249	596	104
0	872673	597	147
0	874099	598	135
0	875982	599	186
0	877672	600	178
0	878935	601	122
0	880308	602	120
0	881829	603	144
0	883405	604	157
0	885118	605	152
0	886403	606	126
0	887934	607	164
0	889085	608	98
0	890309	609	125
0	891949	610	152
0	893430	611	142
0	894990	612	159
0	896339	613	120
0	897816	614	148
0	899324	615	137
0	900871	616	142
0	902659	617	161
0	904127	618	135
0	905852	619	176
0	907256	620	124
0	908541	621	122
0	909937	622	137
0	911363	623	137
0	912807	624	143
0	914104	625	118
0	915668	626	163
0	917376	627	169
0	918840	628	153
0	920112	629	127
0	921400	630	138
0	922651	631	110
0	923884	632	132
0	925381	633	134
0	926668	634	118
0	927952	635	119
0	929583	636	170
0	931121	637	139
0	932477	638	129
0	933673	639	99
0	935050	640	121
0	936411	641	114
0	937996	642	148
0	939501	643	144
0	940929	644	147
0	942113	645	103
0	943567	646	125
0	944851	647	133
0	946352	648	136
0	947672	649	139
0	949126	650	122
0	950592	651	133
0	951937	652	116
0	953136	653	92
0	954363	654	124
0	955799	655	145
0	957145	656	133
0	958827	657	167
0	960494	658	150
0	962016	659	153
0	963476	660	144
0	965053	661	164
0	966690	662	168
0	968192	663	143
0	969566	664	135
0	970965	665	136
0	972192	666	96
0	973482	667	121
0	975118	668	163
0	976280	669	97
0	977938	670	168
0	979742	671	165
0	980928	672	97
0	982586	673	165
0	983898	674	125
0	985534	675	145
0	986755	676	104
0	988280	677	128
0	989919	678	154
0	991750	679	174
0	993163	680	139
0	994641	681	151
0	996156	682	158
0	997479	683	126
0	998684	684	120
0	999995	685	102
0	1001533	686	141
0	1002851	687	129
0	1004454	688	162
0	1005787	689	136
0	1007648	690	187
0	1009280	691	161
0	1010803	692	154
0	1012295	693	145
0	1013680	694	132
0	1015132	695	133
0	1016665	696	128
0	1018211	697	159
0	1019489	698	135
0	1021083	699	151
0	1022341	700	118
0	1023640	701	106
0	1024849	702	120
0	1026276	703	128
0	1027737	704	132
0	1029465	705	179
0	1030723	706	115
0	1031860	707	86
0	1033010	708	105
0	1034254	709	95
0	1035981	710	163
0	1037305	711	115
0	1038585	712	119
0	1039946	713	140
0	1041109	714	110
0	1042863	715	169
0	1044685	716	165
0	1046374	717	176
0	1047945	718	158
0	1049051	719	97
0	1050559	720	148
0	1052247	721	159
0	1054000	722	174
0	1055363	723	136
0	1056826	724	138
0	1058389	725	166
0	1060351	726	179
0	1061857	727	139
0	1063200	728	130
0	1064798	729	145
0	1066202	730	130
0	1067783	731	160
0	1069400	732	160
0	1070580	733	105
0	1072032	734	137
0	1073422	735	127
0	1074946	736	129
0	1076358	737	121
0	1077831	738	128
0	1079133	739	129
0	1080870	740	181
0	1082185	741	122
0	1083640	742	138
0	1085093	743	140
0	1086720	744	154
0	1088107	745	130
0	1089794	746	172
0	1091143	747	132
0	1092538	748	134
0	1093768	749	117
0	1094970	750	114
0	1096412	751	131
0	1097601	752	96
0	1098732	753	88
0	1100380	754	159
0	1101658	755	127
0	1102980	756	131
0	1104394	757	125
0	1106050	758	171
0	1107679	759	172
0	1108972	760	113
0	1110683	761	164
0	1111979	762	129
0	1113330	763	128
0	1114734	764	131
0	1116274	765	143
0	1117674	766	139
0	1119136	767	149
0	1120178	768	93
0	1121615	769	136
0	1123269	770	170
0	1124395	771	87
0	1125448	772	116
0	1126827	773	116
0	1128299	774	139
0	1129488	775	100
0	1130797	776	122
0	1131961	777	103
0	1133577	778	161
0	1134780	779	100
0	1136194	780	130
0	1137861	781	168
0	1139311	782	123
0	1140872	783	166
0	1142341	784	158
0	1144018	785	170
0	1145510	786	145
0	1146796	787	117
0	1148255	788	134
0	1149734	789	144
0	1151249	790	151
0	1152881	791	165
0	1154461	792	145
0	1155916	793	146
0	1157324	794	129
0	1158454	795	115
0	1159547	796	108
0	1161126	797	140
0	1162236	798	97
0	1163654	799	139
0	1165066	800	144
0	1166174	801	99
0	1167725	802	146
0	1169042	803	130
0	1170475	804	132
0	1171711	805	107
0	1173136	806	120
0	1174653	807	142
0	1176151	808	141
0	1177569	809	145
0	1178990	810	123
0	1180360	811	143
0	1181924	812	173
0	1183235	813	132
0	1185056	814	182
0	1186540	815	149
0	1188237	816	180
0	1189607	817	135
0	1191638	818	218
0	1192893	819	124
0	1194225	820	122
0	1195607	821	125
0	1197132	822	154
0	1198882	823	197
0	1200445	824	148
0	1201919	825	141
0	1203344	826	144
0	1204759	827	132
0	1206030	828	122
0	1207577	829	150
0	1209318	830	187
0	1210874	831	147
0	1212649	832	164
0	1214049	833	141
0	1215251	834	111
0	1216535	835	135
0	1217614	836	84
0	1219145	837	150
0	1220410	838	112
0	1221789	839	130
0	1223510	840	179
0	1225118	841	157
0	1226715	842	158
0	1228032	843	130
0	1229620	844	155
0	1231172	845	159
0	1232925	846	176
0	1234321	847	143
0	1235764	848	144
0	1237167	849	142
0	1238804	850	159
0	1240634	851	187
0	1241999	852	122
0	1243321	853	109
0	1244678	854	136
0	1246180	855	143
0	1247503	856	116
0	1248790	857	130
0	1250314	858	131
0	1251929	859	170
0	1253623	860	168
0	1254996	861	146
0	1256405	862	144
0	1257963	863	155
0	1259279	864	127
0	1260723	865	139
0	1262107	866	137
0	1263402	867	110
0	1264712	868	129
0	1266059	869	112
0	1267511	870	146
0	1268824	871	118
0	1270363	872	138
0	1271949	873	169
0	1273523	874	175
0	1275291	875	181
0	1276521	876	129
0	1277884	877	138
0	1279038	878	117
0	1280643	879	158
0	1282063	880	130
0	1283787	881	187
0	1285317	882	145
0	1286534	883	112
0	1287922	884	139
0	1289267	885	132
0	1290595	886	113
0	1291869	887	117
0	1293480	888	154
0	1294853	889	138
0	1296394	890	161
0	1297822	891	139
0	1299242	892	125
0	1300534	893	117
0	1302245	894	162
0	1303666	895	144
0	1305006	896	115
0	1306227	897	108
0	1307689	898	147
0	1308855	899	109
0	1310373	900	146
0	1311943	901	157
0	1313199	902	99
0	1314803	903	161
0	1316228	904	140
0	1317744	905	141
0	1319162	906	129
0	1320465	907	108
0	1322035	908	137
0	1323725	909	161
0	1324967	910	108
0	1326623	911	155
0	1328158	912	138
0	1329767	913	164
0	1331705	914	191
0	1333095	915	139
0	1334367	916	129
0	1335612	917	136
0	1337239	918	138
0	1338727	919	119
0	1340230	920	133
0	1341947	921	178
0	1343461	922	153
0	1344827	923	125
0	1346527	924	153
0	1347650	925	102
0	1349278	926	145
0	1350803	927	152
0	1352641	928	191
0	1354042	929	120
0	1355703	930	139
0	1356935	931	109
0	1358684	932	178
0	1360031	933	116
0	1361838	934	164
0	1363239	935	124
0	1364659	936	143
0	1365824	937	110
0	1367113	938	134
0	1368532	939	142
0	1370011	940	133
0	1371267	941	111
0	1372869	942	163
0	1374449	943	161
0	1375993	944	131
0	1377606	945	136
0	1379069	946	142
0	1380765	947	157
0	1382362	948	152
0	1383609	949	118
0	1385239	950	166
0	1386743	951	155
0	1388142	952	132
0	1389535	953	114
0	1391087	954	159
0	1392535	955	145
0	1394206	956	182
0	1395848	957	155
0	1397091	958	122
0	1398390	959	124
0	1399622	960	102
0	1401427	961	162
0	1402815	962	149
0	1404237	963	137
0	1405639	964	139
0	1407118	965	132
0	1408338	966	103
0	1409529	967	122
0	1411237	968	163
0	1412730	969	144
0	1414610	970	190
0	1415917	971	118
0	1417105	972	109
0	1418785	973	173
0	1420208	974	126
0	1421753	975	160
0	1423693	976	199
0	1425008	977	130
0	1426749	978	170
0	1428226	979	158
0	1429680	980	128
0	1431386	981	175
0	1432767	982	122
0	1434249	983	145
0	1435737	984	157
0	1437138	985	140
0	1438673	986	122
0	1440255	987	159
0	1441756	988	156
0	1443198	989	137
0	1444623	990	131
0	1446124	991	142
0	1447544	992	129
0	1449119	993	166
0	1450564	994	136
0	1451927	995	126
0	1453173	996	127
0	1454787	997	161
0	1456459	998	185
0	1458118	999	160
0	1459642	1000	144
0	1461151	1001	150
0	1462586	1002	160
0	1463916	1003	105
0	1465354	1004	155
0	1466780	1005	139
0	1468703	1006	192
0	1470131	1007	133
0	1471614	1008	180
0	1473236	1009	155
0	1474944	1010	174
0	1476326	1011	123
0	1477849	1012	138
0	1479490	1013	158
0	1480663	1014	94
0	1482319	1015	169
0	1483842	1016	126
0	1485381	1017	134
0	1487054	1018	180
0	1488415	1019	132
0	1489611	1020	112
0	1491291	1021	165
0	1492832	1022	156
0	1493851	1023	90
0	1495173	1024	99
0	1496521	1025	129
0	1498082	1026	164
0	1499514	1027	131
0	1500856	1028	161
0	1502317	1029	138
0	1503804	1030	149
0	1505150	1031	139
0	1506824	1032	171
0	1508290	1033	133
0	1509661	1034	128
0	1510852	1035	102
0	1512231	1036	124
0	1513579	1037	137
0	1514790	1038	118
0	1516214	1039	137
0	1517860	1040	156
0	1519356	1041	155
0	1520723	1042	130
0	1522015	1043	133
0	1523387	1044	135
0	1524862	1045	136
0	1526291	1046	130
0	1527797	1047	145
0	1529121	1048	121
0	1530424	1049	138
0	1531750	1050	114
0	1533477	1051	156
0	1534909	1052	135
0	1536303	1053	141
0	1537839	1054	133
0	1539367	1055	141
0	1540567	1056	129
0	1541856	1057	120
0	1543631	1058	172
0	1545299	1059	165
0	1546708	1060	135
0	1547990	1061	119
0	1549277	1062	124
0	1550750	1063	156
0	1552095	1064	128
0	1553477	1065	129
0	1555090	1066	164
0	1556753	1067	154
0	1558120	1068	122
0	1559532	1069	125
0	1560705	1070	107
0	1562567	1071	163
0	1563890	1072	134
0	1565480	1073	143
0	1566737	1074	102
0	1568241	1075	147
0	1569597	1076	117
0	1571098	1077	144
0	1572702	1078	145
0	1573942	1079	129
0	1575481	1080	161
0	1577034	1081	160
0	1578484	1082	131
0	1579610	1083	83
0	1581233	1084	168
0	1582783	1085	133
0	1584250	1086	138
0	1585353	1087	94
0	1586983	1088	147
0	1588320	1089	142
0	1589528	1090	102
0	1590948	1091	137
0	1592272	1092	129
0	1593795	1093	134
0	1595282	1094	166
0	1596695	1095	144
0	1598101	1096	131
0	1599721	1097	169
0	1601074	1098	138
0	1602485	1099	118
0	1604278	1100	179
0	1605735	1101	146
0	1607278	1102	150
0	1609059	1103	176
0	1610739	1104	159
0	1612117	1105	149
0	1613483	1106	143
0	1615150	1107	152
0	1616742	1108	153
0	1618240	1109	137
0	1619779	1110	145
0	1621164	1111	144
0	1622751	1112	148
0	1624658	1113	196
0	1626113	1114	138
0	1627426	1115	124
0	1628723	1116	108
0	1630182	1117	134
0	1631642	1118	145
0	1633167	1119	160
0	1634427	1120	104
0	1636021	1121	167
0	1637553	1122	133
0	1638838	1123	122
0	1640157	1124	140
0	1641683	1125	145
0	1643456	1126	178
0	1644972	1127	141
0	1646300	1128	117
0	1647708	1129	131
0	1649247	1130	137
0	1650712	1131	142
0	1652018	1132	135
0	1653129	1133	106
0	1654778	1134	152
0	1656222	1135	145
0	1657612	1136	131
0	1658833	1137	104
0	1660077	1138	109
0	1661461	1139	147
0	1663157	1140	174
0	1664596	1141	122
0	1666213	1142	158
0	1667299	1143	101
0	1668625	1144	131
0	1670109	1145	133
0	1671542	1146	132
0	1672957	1147	124
0	1674472	1148	144
0	1675829	1149	118
0	1677294	1150	145
0	1678773	1151	144
0	1680241	1152	151
0	1681648	1153	124
0	1682897	1154	120
0	1684521	1155	147
0	1685967	1156	115
0	1687468	1157	136
0	1688827	1158	142
0	1690201	1159	147
0	1691940	1160	161
0	1693654	1161	159
0	1695092	1162	129
0	1696200	1163	103
0	1697608	1164	129
0	1698711	1165	114
0	1700269	1166	169
0	1701753	1167	139
0	1703185	1168	137
0	1704411	1169	139
0	1706033	1170	162
0	1707585	1171	173
0	1709031	1172	129
0	1710225	1173	109
0	1711557	1174	137
0	1713172	1175	170
0	1714835	1176	144
0	1716276	1177	148
0	1717781	1178	162
0	1719672	1179	174
0	1720818	1180	100
0	1722170	1181	125
0	1723834	1182	159
0	1724961	1183	94
0	1726580	1184	154
0	1728178	1185	145
0	1729968	1186	181
0	1731350	1187	135
0	1732726	1188	123
0	1734268	1189	147
0	1735809	1190	133
0	1737312	1191	138
0	1738545	1192	100
0	1740063	1193	147
0	1741633	1194	167
0	1743213	1195	153
0	1744459	1196	107
0	1745682	1197	124
0	1746951	1198	106
0	1748439	1199	163
0	1749845	1200	120
0	1751331	1201	155
0	1753019	1202	171
0	1754455	1203	133
0	1756111	1204	159
0	1757243	1205	93
0	1758802	1206	154
0	1760601	1207	198
0	1762100	1208	126
0	1763661	1209	140
0	1765329	1210	162
0	1766829	1211	149
0	1768301	1212	149
0	1769774	1213	138
0	1771320	1214	167
0	1772646	1215	119
0	1774157	1216	166
0	1775572	1217	124
0	1777032	1218	139
0	1778586	1219	143
0	1780172	1220	160
0	1781550	1221	137
0	1782912	1222	131
0	1784574	1223	163
0	1786080	1224	145
0	1787769	1225	164
0	1789507	1226	165
0	1790934	1227	146
0	1792210	1228	101
0	1793938	1229	163
0	1795152	1230	106
0	1796215	1231	92
0	1797578	1232	118
0	1798889	1233	124
0	1800414	1234	170
0	1802036	1235	165
0	1803363	1236	132
0	1804666	1237	130
0	1806266	1238	141
0	1807711	1239	126
0	1809514	1240	175
0	1810774	1241	133
0	1812557	1242	180
0	1813581	1243	81
0	1815073	1244	151
0	1816713	1245	161
0	1818241	1246	157
0	1819590	1247	130
0	1821244	1248	163
0	1822645	1249	148
0	1824072	1250	139
0	1825452	1251	135
0	1827324	1252	163
0	1828840	1253	131
0	1830654	1254	173
0	1832013	1255	150
0	1833513	1256	149
0	1835022	1257	162
0	1836682	1258	135
0	1837821	1259	106
0	1839290	1260	129
0	1841056	1261	177
0	1842209	1262	114
0	1844037	1263	161
0	1845274	1264	102
0	1846949	1265	158
0	1848605	1266	159
0	1850181	1267	153
0	1851768	1268	144
0	1853217	1269	132
0	1854632	1270	133
0	1856100	1271	133
0	1857830	1272	159
0	1859457	1273	158
0	1860884	1274	134
0	1862140	1275	127
0	1863675	1276	152
0	1864837	1277	115
0	1866254	1278	138
0	1867456	1279	137
0	1869055	1280	137
0	1870467	1281	135
0	1871849	1282	143
0	1873334	1283	134
0	1874696	1284	123
0	1876116	1285	141
0	1877583	1286	160
0	1879010	1287	148
0	1880767	1288	162
0	1882321	1289	157
0	1883871	1290	148
0	1885016	1291	102
0	1886358	1292	135
0	1887640	1293	121
0	1888866	1294	131
0	1890551	1295	158
0	1892055	1296	141
0	1893467	1297	137
0	1894617	1298	85
0	1896243	1299	153
0	1897695	1300	156
0	1899370	1301	170
0	1900826	1302	129
0	1902703	1303	180
0	1904214	1304	138
0	1905580	1305	117
0	1907231	1306	172
0	1908771	1307	157
0	1910307	1308	149
0	1911511	1309	89
0	1913064	1310	131
0	1914556	1311	129
0	1915846	1312	135
0	1917225	1313	136
0	1918617	1314	127
0	1920395	1315	177
0	1921941	1316	149
0	1923295	1317	129
0	1924785	1318	149
0	1925870	1319	104
0	1926926	1320	104
0	1928100	1321	111
0	1929629	1322	160
0	1931097	1323	149
0	1932630	1324	148
0	1934186	1325	149
0	1935704	1326	147
0	1937262	1327	151
0	1938471	1328	112
0	1939943	1329	155
0	1941513	1330	136
0	1943024	1331	132
0	1944335	1332	138
0	1946003	1333	165
0	1947847	1334	169
0	1949316	1335	134
0	1950951	1336	164
0	1952140	1337	112
0	1953786	1338	167
0	1955219	1339	126
0	1956501	1340	120
0	1957917	1341	133
0	1959625	1342	171
0	1961096	1343	142
0	1962424	1344	129
0	1964097	1345	188
0	1965900	1346	192
0	1967520	1347	153
0	1968927	1348	124
0	1970029	1349	105
0	1971570	1350	141
0	1973143	1351	148
0	1974807	1352	167
0	1976064	1353	92
0	1977600	1354	141
0	1978922	1355	121
0	1980269	1356	142
0	1981864	1357	154
0	1983281	1358	146
0	1984568	1359	128
0	1986102	1360	154
0	1987600	1361	151
0	1989022	1362	147
0	1990318	1363	121
0	1991493	1364	108
0	1993096	1365	152
0	1994535	1366	138
0	1996001	1367	151
0	1997389	1368	145
0	1998747	1369	139
0	2000283	1370	148
0	2001443	1371	115
0	2003152	1372	150
0	2004581	1373	142
0	2006288	1374	160
0	2008040	1375	167
0	2009597	1376	134
0	2011273	1377	181
0	2012578	1378	120
0	2013676	1379	89
0	2015269	1380	165
0	2016491	1381	101
0	2017853	1382	137
0	2019587	1383	175
0	2020990	1384	132
0	2022245	1385	140
0	2023791	1386	155
0	2025415	1387	131
0	2026933	1388	147
0	2028586	1389	170
0	2030056	1390	130
0	2031454	1391	143
0	2032596	1392	95
0	2033778	1393	119
0	2035275	1394	142
0	2036734	1395	152
0	2038017	1396	118
0	2039326	1397	116
0	2040382	1398	97
0	2042006	1399	163
0	2043689	1400	171
0	2045031	1401	117
0	2046565	1402	169
0	2048150	1403	156
0	2049601	1404	120
0	2051183	1405	145
0	2052683	1406	149
0	2054125	1407	131
0	2055695	1408	149
0	2057517	1409	201
0	2058801	1410	124
0	2060075	1411	113
0	2061526	1412	132
0	2062990	1413	139
0	2064691	1414	164
0	2066344	1415	156
0	2067559	1416	116
0	2069127	1417	155
0	2070408	1418	122
0	2071705	1419	128
0	2073101	1420	136
0	2074752	1421	158
0	2076443	1422	142
0	2077765	1423	119
0	2079300	1424	142
0	2080777	1425	148
0	2082195	1426	147
0	2083719	1427	145
0	2085187	1428	149
0	2086489	1429	115
0	2087994	1430	157
0	2089883	1431	182
0	2091283	1432	129
0	2092560	1433	112
0	2094233	1434	160
0	2095542	1435	128
0	2096980	1436	147
0	2098584	1437	165
0	2099968	1438	133
0	2100933	1439	102
0	2102582	1440	153
0	2104228	1441	161
0	2105699	1442	138
0	2106935	1443	119
0	2108094	1444	116
0	2109704	1445	147
0	2111038	1446	125
0	2112756	1447	171
0	2114428	1448	153
0	2115619	1449	112
0	2117014	1450	139
0	2118454	1451	131
0	2120076	1452	161
0	2121402	1453	121
0	2122800	1454	133
0	2124387	1455	148
0	2125951	1456	147
0	2127374	1457	146
0	2129034	1458	183
0	2130211	1459	116
0	2131534	1460	109
0	2132888	1461	131
0	2134073	1462	106
0	2135512	1463	146
0	2137006	1464	143
0	2138711	1465	170
0	2140221	1466	141
0	2142060	1467	174
0	2143739	1468	166
0	2145545	1469	173
0	2146830	1470	113
0	2148488	1471	149
0	2149851	1472	142
0	2151406	1473	164
0	2152924	1474	159
0	2154433	1475	144
0	2155882	1476	144
0	2157004	1477	99
0	2158690	1478	165
0	2160414	1479	177
0	2161986	1480	164
0	2163329	1481	140
0	2164936	1482	158
0	2167055	1483	214
0	2168566	1484	140
0	2170424	1485	177
0	2171975	1486	130
0	2173853	1487	191
0	2175676	1488	178
0	2177252	1489	129
0	2178880	1490	176
0	2180106	1491	123
0	2181464	1492	127
0	2182966	1493	131
0	2184807	1494	196
0	2186411	1495	143
0	2187828	1496	156
0	2189414	1497	153
0	2191017	1498	172
0	2192211	1499	133
0	2193489	1500	98
0	2194982	1501	136
0	2196610	1502	149
0	2197935	1503	140
0	2199090	1504	114
0	2200375	1505	116
0	2201747	1506	125
0	2203055	1507	133
0	2204392	1508	116
0	2206149	1509	176
0	2207621	1510	136
0	2209334	1511	170
0	2210619	1512	130
0	2212387	1513	161
0	2214330	1514	190
0	2215852	1515	141
0	2217883	1516	206
0	2219524	1517	158
0	2220833	1518	126
0	2222543	1519	155
0	2224104	1520	155
0	2225604	1521	125
0	2226982	1522	127
0	2228707	1523	184
0	2230055	1524	133
0	2231521	1525	151
0	2233126	1526	154
0	2234289	1527	102
0	2235680	1528	134
0	2237099	1529	114
0	2238582	1530	143
0	2239986	1531	129
0	2241148	1532	101
0	2242234	1533	97
0	2243576	1534	111
0	2245272	1535	163
0	2247094	1536	173
0	2248299	1537	118
0	2249610	1538	132
0	2251149	1539	164
0	2252744	1540	137
0	2254359	1541	160
0	2255683	1542	119
0	2257165	1543	161
0	2258703	1544	153
0	2259974	1545	106
0	2261586	1546	161
0	2263328	1547	185
0	2264865	1548	162
0	2266109	1549	113
0	2267333	1550	118
0	2268622	1551	112
0	2270150	1552	133
0	2271645	1553	126
0	2273181	1554	149
0	2274869	1555	159
0	2276231	1556	115
0	2277588	1557	130
0	2278839	1558	114
0	2280359	1559	139
0	2281717	1560	122
0	2283146	1561	126
0	2284482	1562	135
0	2285890	1563	131
0	2286971	1564	106
0	2288327	1565	137
0	2289618	1566	102
0	2290909	1567	124
0	2292196	1568	124
0	2293745	1569	136
0	2295136	1570	137
0	2296672	1571	137
0	2298062	1572	145
0	2299541	1573	140
0	2300839	1574	127
0	2301955	1575	97
0	2303444	1576	132
0	2305259	1577	182
0	2306709	1578	137
0	2308242	1579	142
0	2309384	1580	94
0	2310512	1581	97
0	2312054	1582	151
0	2313688	1583	145
0	2314911	1584	104
0	2316368	1585	136
0	2317730	1586	115
0	2319036	1587	131
0	2320524	1588	157
0	2321978	1589	137
0	2323568	1590	154
0	2324924	1591	141
0	2326173	1592	114
0	2327872	1593	162
0	2329090	1594	121
0	2330949	1595	208
0	2332555	1596	161
0	2334058	1597	144
0	2335681	1598	156
0	2336782	1599	104
0	2338246	1600	138
0	2339837	1601	146
0	2341489	1602	175
0	2342555	1603	93
0	2343769	1604	103
0	2345217	1605	145
0	2347037	1606	181
0	2348428	1607	136
0	2349737	1608	130
0	2351103	1609	127
0	2352268	1610	107
0	2353723	1611	130
0	2355094	1612	130
0	2356558	1613	141
0	2358155	1614	180