version 3
run SimulationTime-403-20240107-16:19:58-8228
attr configname SimulationTime
attr datetime 20240107-16:19:58
attr datetimef 20240107-161958
attr experiment SimulationTime
attr inifile omnetpp.ini
attr iterationvars ""
attr iterationvarsd ""
attr iterationvarsf ""
attr measurement ""
attr network System
attr processid 8228
attr repetition 403
attr replication #403
attr resultdir results
attr runnumber 403
attr seedset 403
config **.cpu.rate 1000
config **.hd.rateProcessing 250
config **.webServer.web_server_rate 100
config **.p1 0.35
config **.p2 0.40
config network System
config num-rngs 4
config **.cpu.rng-0 0
config **.cpu.rng-1 1
config **.hd.rng-0 2
config **.webServer.rng-0 3
config repeat 500
config seed-set 403
config sim-time-limit 10000s
config **.client.numClients 40

vector 0 System.server.cpu requestCounterStat:vector ETV
attr recordingmode vector
attr source requestCounter
vector 1 System.server.hd utilizationHdStat:vector ETV
attr recordingmode vector
attr source utilizationHd
vector 2 System.server.cpu utilizationCpuStat:vector ETV
attr recordingmode vector
attr source utilizationCpu
vector 3 System.webServer utilizationWsStat:vector ETV
attr recordingmode vector
attr source utilizationWs
0	1736	1	165
0	3260	2	161
0	4684	3	129
0	6189	4	146
0	7937	5	163
0	9271	6	121
0	10606	7	138
0	12083	8	146
0	13534	9	138
0	14879	10	131
0	16278	11	128
0	17560	12	119
0	18936	13	117
0	20564	14	165
0	21816	15	107
0	23562	16	161
0	25370	17	175
0	26730	18	113
0	27876	19	107
0	29266	20	136
0	30717	21	162
0	32184	22	132
0	33677	23	148
0	35542	24	188
0	36979	25	132
0	38410	26	126
0	40139	27	160
0	41603	28	145
0	42958	29	126
0	44530	30	140
0	46107	31	140
0	47715	32	165
0	48994	33	118
0	50241	34	110
0	51605	35	109
0	53213	36	167
0	54645	37	143
0	55833	38	109
0	57426	39	168
0	58821	40	149
0	60116	41	126
0	61296	42	99
0	62644	43	139
0	64250	44	143
0	65753	45	146
0	67333	46	149
0	68855	47	159
0	70261	48	133
0	71629	49	135
0	72948	50	117
0	74130	51	107
0	75316	52	119
0	76485	53	84
0	78072	54	146
0	79315	55	110
0	80569	56	133
0	82129	57	157
0	83725	58	163
0	84687	59	91
0	86078	60	105
0	87393	61	118
0	89071	62	157
0	90343	63	135
0	91618	64	130
0	92918	65	123
0	94482	66	151
0	95751	67	120
0	97189	68	151
0	98579	69	139
0	100296	70	147
0	101809	71	130
0	103349	72	143
0	104606	73	112
0	106366	74	177
0	107938	75	155
0	109550	76	167
0	111001	77	146
0	112465	78	149
0	113580	79	100
0	115212	80	150
0	116949	81	172
0	118232	82	110
0	119760	83	151
0	121296	84	135
0	122728	85	149
0	124089	86	128
0	125715	87	145
0	127071	88	121
0	128653	89	161
0	129961	90	132
0	131563	91	149
0	133012	92	144
0	134464	93	133
0	135881	94	126
0	137369	95	141
0	138531	96	99
0	139858	97	120
0	141213	98	120
0	142760	99	170
0	144504	100	164
0	145804	101	129
0	146953	102	112
0	148542	103	140
0	149878	104	115
0	151146	105	123
0	152691	106	148
0	154006	107	134
0	155539	108	136
0	157219	109	153
0	158618	110	137
0	159920	111	111
0	161798	112	183
0	163181	113	138
0	164681	114	153
0	165983	115	117
0	167435	116	129
0	168930	117	156
0	170494	118	157
0	171984	119	137
0	173314	120	120
0	174688	121	125
0	176152	122	135
0	177833	123	162
0	179624	124	176
0	181040	125	133
0	182671	126	150
0	184087	127	125
0	185680	128	156
0	187247	129	142
0	188689	130	138
0	190329	131	141
0	191972	132	154
0	193414	133	135
0	194684	134	123
0	196184	135	141
0	198073	136	194
0	199424	137	130
0	200912	138	149
0	202397	139	138
0	204067	140	166
0	205391	141	121
0	206775	142	119
0	208171	143	145
0	209737	144	153
0	211460	145	166
0	212951	146	138
0	214328	147	130
0	215891	148	152
0	217273	149	127
0	218576	150	133
0	220234	151	163
0	221699	152	148
0	222971	153	107
0	224754	154	172
0	226087	155	124
0	227987	156	177
0	229400	157	144
0	230967	158	142
0	232152	159	118
0	233704	160	142
0	235659	161	194
0	237075	162	131
0	238782	163	176
0	240296	164	153
0	241850	165	153
0	243123	166	132
0	244595	167	133
0	246209	168	139
0	247783	169	139
0	249374	170	133
0	250632	171	127
0	252176	172	127
0	253571	173	152
0	255135	174	175
0	256450	175	108
0	258109	176	158
0	259550	177	140
0	260966	178	147
0	262389	179	144
0	263988	180	149
0	265269	181	128
0	266792	182	154
0	268363	183	160
0	269817	184	141
0	271336	185	142
0	273090	186	155
0	274514	187	131
0	276159	188	150
0	277546	189	138
0	279059	190	139
0	280683	191	153
0	281970	192	124
0	283350	193	147
0	284971	194	132
0	286312	195	120
0	287879	196	154
0	289243	197	137
0	290980	198	168
0	292199	199	108
0	293762	200	163
0	295273	201	150
0	296628	202	118
0	298073	203	144
0	299683	204	147
0	301233	205	163
0	302645	206	129
0	304470	207	204
0	305694	208	117
0	307299	209	156
0	309005	210	186
0	310370	211	140
0	311690	212	137
0	313097	213	138
0	314705	214	151
0	316601	215	207
0	317979	216	149
0	319549	217	167
0	321241	218	177
0	322505	219	123
0	324224	220	167
0	325561	221	126
0	326983	222	171
0	328353	223	111
0	329736	224	122
0	331420	225	163
0	332999	226	158
0	334338	227	116
0	335766	228	153
0	337414	229	165
0	338443	230	111
0	339718	231	138
0	340963	232	124
0	343011	233	211
0	344351	234	131
0	346038	235	166
0	347706	236	159
0	349310	237	139
0	351040	238	165
0	352489	239	160
0	353654	240	109
0	355413	241	170
0	356992	242	162
0	358807	243	184
0	360318	244	138
0	361596	245	121
0	362942	246	117
0	364585	247	170
0	366016	248	148
0	367679	249	158
0	369295	250	144
0	370654	251	130
0	371714	252	105
0	373358	253	167
0	374952	254	149
0	376435	255	156
0	377913	256	155
0	379267	257	111
0	380672	258	130
0	382109	259	132
0	383709	260	148
0	385282	261	136
0	386611	262	124
0	388201	263	175
0	389919	264	159
0	391389	265	157
0	392871	266	153
0	394399	267	141
0	396015	268	145
0	397324	269	120
0	398887	270	131
0	400367	271	149
0	401565	272	113
0	402822	273	112
0	404233	274	136
0	405769	275	131
0	407213	276	135
0	408570	277	122
0	409974	278	141
0	411297	279	136
0	412556	280	123
0	414188	281	155
0	415921	282	158
0	417371	283	119
0	418919	284	153
0	420347	285	133
0	422172	286	156
0	423658	287	143
0	425200	288	135
0	426877	289	156
0	428388	290	165
0	429581	291	108
0	431134	292	156
0	432652	293	143
0	434091	294	146
0	435538	295	146
0	437295	296	180
0	438724	297	146
0	440229	298	162
0	441857	299	137
0	442924	300	85
0	444433	301	148
0	446140	302	164
0	447545	303	130
0	449208	304	148
0	450636	305	123
0	451998	306	115
0	453410	307	137
0	454947	308	144
0	456729	309	197
0	458233	310	142
0	459652	311	136
0	461164	312	131
0	462564	313	129
0	463953	314	138
0	465500	315	156
0	466947	316	146
0	468378	317	130
0	470289	318	194
0	471964	319	166
0	473331	320	137
0	475024	321	172
0	476397	322	128
0	477532	323	98
0	479004	324	149
0	480319	325	138
0	481876	326	168
0	483190	327	103
0	484463	328	112
0	485993	329	151
0	487722	330	155
0	489316	331	139
0	490725	332	128
0	492139	333	131
0	493636	334	148
0	495210	335	165
0	496095	336	90
0	497392	337	124
0	498945	338	156
0	500321	339	117
0	501708	340	133
0	503190	341	135
0	504732	342	155
0	506374	343	169
0	507882	344	143
0	509345	345	142
0	510259	346	83
0	511806	347	158
0	513196	348	127
0	514393	349	94
0	515770	350	131
0	517064	351	113
0	518810	352	179
0	520446	353	145
0	521816	354	147
0	523159	355	126
0	524912	356	186
0	526506	357	153
0	527906	358	137
0	529176	359	127
0	530927	360	161
0	532236	361	126
0	533907	362	176
0	535478	363	140
0	537023	364	148
0	538495	365	141
0	539914	366	128
0	541269	367	134
0	542766	368	150
0	544242	369	155
0	545641	370	131
0	546935	371	109
0	548317	372	129
0	549841	373	137
0	551292	374	140
0	552988	375	173
0	554646	376	175
0	555737	377	94
0	557101	378	137
0	558682	379	152
0	560017	380	125
0	561486	381	148
0	562814	382	113
0	564536	383	169
0	566265	384	178
0	567445	385	111
0	568969	386	125
0	570657	387	169
0	572332	388	160
0	573809	389	156
0	575490	390	155
0	576921	391	154
0	578270	392	122
0	580024	393	185
0	581410	394	139
0	582949	395	152
0	584193	396	119
0	585473	397	127
0	586930	398	142
0	588318	399	141
0	589856	400	170
0	591060	401	117
0	592575	402	142
0	593892	403	124
0	595147	404	118
0	596376	405	108
0	597576	406	115
0	599111	407	148
0	600622	408	150
0	602257	409	144
0	603826	410	149
0	605295	411	128
0	606686	412	134
0	608364	413	167
0	609956	414	165
0	611318	415	139
0	612573	416	126
0	614189	417	161
0	615894	418	170
0	617253	419	136
0	618760	420	155
0	620257	421	124
0	621507	422	117
0	623077	423	155
0	624943	424	187
0	626428	425	124
0	627995	426	136
0	629686	427	160
0	631480	428	203
0	632914	429	141
0	634567	430	149
0	636068	431	138
0	637559	432	140
0	638947	433	141
0	640662	434	146
0	642083	435	142
0	643298	436	108
0	644712	437	127
0	646232	438	131
0	647612	439	129
0	649164	440	158
0	650423	441	110
0	651920	442	140
0	653003	443	102
0	654438	444	122
0	656019	445	140
0	657600	446	144
0	658871	447	124
0	660357	448	141
0	662000	449	150
0	663235	450	109
0	664630	451	126
0	666024	452	135
0	667616	453	151
0	669195	454	142
0	670396	455	116
0	671594	456	113
0	672945	457	126
0	674318	458	130
0	675788	459	129
0	677153	460	133
0	678519	461	125
0	680024	462	134
0	681574	463	141
0	682712	464	111
0	683955	465	120
0	685638	466	148
0	686826	467	117
0	688201	468	130
0	689674	469	138
0	690924	470	102
0	692604	471	147
0	693974	472	133
0	695746	473	171
0	697200	474	139
0	698596	475	133
0	699840	476	117
0	701573	477	172
0	703067	478	143
0	704403	479	143
0	705552	480	113
0	706844	481	119
0	708491	482	170
0	709719	483	119
0	710774	484	94
0	712408	485	171
0	713473	486	86
0	714908	487	142
0	716274	488	123
0	717477	489	114
0	719035	490	152
0	720663	491	163
0	722392	492	178
0	723652	493	129
0	724918	494	133
0	726366	495	135
0	727898	496	137
0	729311	497	132
0	730694	498	122
0	732056	499	135
0	733347	500	121
0	735021	501	159
0	736564	502	130
0	738021	503	136
0	739399	504	135
0	740637	505	131
0	741899	506	123
0	743668	507	178
0	745210	508	149
0	746307	509	112
0	747631	510	128
0	749002	511	122
0	750047	512	84
0	751591	513	153
0	753271	514	177
0	754714	515	134
0	755760	516	85
0	756969	517	108
0	758264	518	128
0	759635	519	124
0	761028	520	137
0	762146	521	107
0	763377	522	128
0	764562	523	110
0	765641	524	102
0	767269	525	159
0	769069	526	175
0	770545	527	125
0	772139	528	155
0	773852	529	144
0	775524	530	144
0	776868	531	137
0	778425	532	166
0	779956	533	142
0	781380	534	137
0	782916	535	137
0	784100	536	105
0	785478	537	149
0	786857	538	124
0	788276	539	120
0	789557	540	123
0	790723	541	103
0	792287	542	133
0	793467	543	93
0	794947	544	129
0	796321	545	105
0	798218	546	190
0	799564	547	125
0	801043	548	146
0	802483	549	143
0	804020	550	127
0	805662	551	171
0	807299	552	148
0	808671	553	125
0	810559	554	179
0	811840	555	118
0	813060	556	113
0	814259	557	118
0	815735	558	133
0	816840	559	100
0	818152	560	112
0	819500	561	137
0	821026	562	163
0	822483	563	140
0	824030	564	150
0	825435	565	124
0	826552	566	98
0	828207	567	168
0	829936	568	180
0	831334	569	135
0	832782	570	152
0	834046	571	129
0	835568	572	147
0	837062	573	159
0	838465	574	118
0	839941	575	157
0	841358	576	132
0	842993	577	142
0	844833	578	197
0	846184	579	128
0	847498	580	120
0	849311	581	188
0	850717	582	155
0	852196	583	142
0	853658	584	133
0	855205	585	164
0	856402	586	114
0	857753	587	132
0	859325	588	141
0	860749	589	133
0	862202	590	143
0	863841	591	170
0	865378	592	154
0	866934	593	137
0	868145	594	118
0	869455	595	103
0	870549	596	85
0	872192	597	176
0	873639	598	128
0	874943	599	139
0	876578	600	153
0	877759	601	106
0	879158	602	118
0	880404	603	117
0	881932	604	151
0	883359	605	138
0	884737	606	117
0	886054	607	130
0	887451	608	136
0	889093	609	171
0	890343	610	114
0	892174	611	184
0	893562	612	135
0	894932	613	135
0	896679	614	174
0	898369	615	159
0	899961	616	137
0	901435	617	147
0	903036	618	156
0	903994	619	105
0	905540	620	158
0	907138	621	155
0	908373	622	128
0	910050	623	162
0	911439	624	142
0	912902	625	132
0	914235	626	122
0	915751	627	145
0	917137	628	129
0	918525	629	117
0	920044	630	133
0	921440	631	123
0	922898	632	147
0	924352	633	147
0	926140	634	177
0	927382	635	103
0	928875	636	160
0	930096	637	124
0	931552	638	153
0	933000	639	143
0	934620	640	162
0	936446	641	163
0	937947	642	154
0	939369	643	149
0	940727	644	135
0	942233	645	147
0	944014	646	158
0	945438	647	135
0	947170	648	197
0	948172	649	73
0	949505	650	121
0	950962	651	160
0	952433	652	122
0	953992	653	146
0	955241	654	118
0	956750	655	148
0	958432	656	173
0	959816	657	129
0	961750	658	205
0	963676	659	199
0	965372	660	166
0	966743	661	114
0	968459	662	135
0	970044	663	146
0	971473	664	122
0	973063	665	153
0	974837	666	183
0	976218	667	138
0	977433	668	122
0	978481	669	91
0	979925	670	144
0	981538	671	158
0	983003	672	146
0	984414	673	144
0	985898	674	127
0	987841	675	200
0	989290	676	130
0	990474	677	115
0	992216	678	179
0	993986	679	187
0	995453	680	123
0	996918	681	140
0	998256	682	129
0	999450	683	113
0	1000987	684	164
0	1002587	685	149
0	1004042	686	154
0	1005689	687	162
0	1007108	688	142
0	1008599	689	158
0	1010250	690	157
0	1011372	691	83
0	1012723	692	126
0	1014293	693	131
0	1015892	694	154
0	1017206	695	127
0	1018557	696	130
0	1020043	697	149
0	1021605	698	161
0	1023036	699	148
0	1024391	700	125
0	1025911	701	137
0	1027577	702	145
0	1029159	703	155
0	1030630	704	152
0	1032091	705	154
0	1033351	706	125
0	1034573	707	125
0	1036302	708	150
0	1037951	709	158
0	1039448	710	149
0	1041229	711	182
0	1042423	712	109
0	1043626	713	120
0	1045255	714	170
0	1046577	715	135
0	1047827	716	99
0	1049143	717	145
0	1050548	718	132
0	1052209	719	162
0	1053898	720	169
0	1055805	721	186
0	1057238	722	138
0	1058790	723	151
0	1060087	724	116
0	1061674	725	136
0	1063187	726	132
0	1064909	727	169
0	1066444	728	142
0	1067926	729	147
0	1069143	730	111
0	1070793	731	157
0	1072506	732	178
0	1073952	733	155
0	1075302	734	123
0	1076992	735	165
0	1078305	736	120
0	1079866	737	172
0	1081647	738	186
0	1083278	739	158
0	1084752	740	150
0	1086035	741	108
0	1087599	742	133
0	1088794	743	102
0	1090192	744	135
0	1091609	745	118
0	1092842	746	100
0	1093929	747	94
0	1095567	748	153
0	1097180	749	162
0	1098575	750	155
0	1099982	751	124
0	1101476	752	139
0	1102875	753	140
0	1104565	754	173
0	1105898	755	132
0	1107268	756	151
0	1108844	757	153
0	1110334	758	127
0	1111791	759	138
0	1113430	760	167
0	1114957	761	146
0	1116514	762	144
0	1118223	763	162
0	1119770	764	140
0	1121190	765	129
0	1122643	766	144
0	1124013	767	131
0	1125300	768	126
0	1126565	769	120
0	1128035	770	144
0	1129607	771	163
0	1131329	772	179
0	1132518	773	104
0	1133979	774	140
0	1135032	775	96
0	1136745	776	162
0	1138105	777	123
0	1139581	778	131
0	1141420	779	188
0	1142775	780	101
0	1144461	781	155
0	1145841	782	149
0	1147450	783	154
0	1149065	784	144
0	1150476	785	136
0	1152099	786	180
0	1153597	787	131
0	1155084	788	142
0	1156933	789	176
0	1158258	790	133
0	1159749	791	156
0	1161380	792	162
0	1162866	793	127
0	1164142	794	107
0	1165345	795	116
0	1166726	796	136
0	1167863	797	112
0	1168903	798	89
0	1170165	799	107
0	1171480	800	119
0	1172934	801	129
0	1174180	802	107
0	1175538	803	137
0	1177081	804	148
0	1178474	805	144
0	1179678	806	103
0	1180708	807	97
0	1181876	808	101
0	1183717	809	204
0	1185289	810	142
0	1187101	811	177
0	1188281	812	129
0	1190022	813	150
0	1191742	814	193
0	1193133	815	130
0	1194506	816	132
0	1195782	817	105
0	1197229	818	122
0	1198834	819	152
0	1200007	820	109
0	1201491	821	123
0	1202926	822	120
0	1204698	823	185
0	1206055	824	138
0	1207337	825	129
0	1208837	826	131
0	1210175	827	109
0	1211747	828	151
0	1213202	829	136
0	1214671	830	167
0	1216045	831	125
0	1217117	832	97
0	1218602	833	148
0	1220129	834	162
0	1221541	835	121
0	1222862	836	118
0	1224089	837	124
0	1225757	838	173
0	1227293	839	161
0	1228946	840	167
0	1230274	841	133
0	1231924	842	147
0	1233338	843	147
0	1234686	844	121
0	1235911	845	120
0	1237640	846	180
0	1239185	847	156
0	1240423	848	123
0	1241459	849	101
0	1242632	850	123
0	1244146	851	149
0	1245607	852	138
0	1247085	853	155
0	1248649	854	149
0	1250027	855	141
0	1251678	856	164
0	1253180	857	153
0	1254817	858	162
0	1256323	859	147
0	1257816	860	139
0	1259207	861	138
0	1260697	862	147
0	1262304	863	170
0	1263517	864	116
0	1265063	865	139
0	1266399	866	133
0	1267929	867	139
0	1269438	868	142
0	1271119	869	166
0	1272446	870	121
0	1274007	871	152
0	1275693	872	151
0	1277196	873	154
0	1278533	874	128
0	1280082	875	136
0	1281692	876	151
0	1283127	877	144
0	1284555	878	123
0	1286231	879	167
0	1287903	880	166
0	1289358	881	138
0	1290596	882	95
0	1291891	883	118
0	1293247	884	121
0	1294784	885	142
0	1296445	886	150
0	1297911	887	107
0	1299060	888	116
0	1300156	889	97
0	1301479	890	133
0	1303082	891	154
0	1304406	892	133
0	1305920	893	155
0	1307399	894	134
0	1308727	895	107
0	1310255	896	139
0	1311638	897	138
0	1313228	898	157
0	1314861	899	154
0	1316343	900	136
0	1317582	901	116
0	1319020	902	123
0	1320679	903	142
0	1322294	904	166
0	1323969	905	152
0	1325468	906	144
0	1326925	907	140
0	1328730	908	182
0	1330376	909	157
0	1331550	910	110
0	1333311	911	176
0	1334769	912	143
0	1336125	913	113
0	1337677	914	147
0	1339203	915	161
0	1340546	916	136
0	1341758	917	107
0	1343224	918	147
0	1344639	919	150
0	1345918	920	127
0	1347400	921	145
0	1348778	922	131
0	1350216	923	131
0	1352088	924	197
0	1353254	925	103
0	1354861	926	150
0	1356451	927	151
0	1357988	928	168
0	1359311	929	114
0	1360965	930	164
0	1362182	931	114
0	1363786	932	133
0	1365245	933	132
0	1366554	934	120
0	1368176	935	181
0	1369382	936	111
0	1370912	937	171
0	1372305	938	132
0	1373429	939	89
0	1374935	940	130
0	1376056	941	92
0	1377403	942	130
0	1379115	943	185
0	1380479	944	113
0	1381955	945	149
0	1383496	946	148
0	1385137	947	176
0	1386648	948	134
0	1387988	949	141
0	1389865	950	187
0	1391477	951	165
0	1392914	952	148
0	1394578	953	169
0	1395950	954	115
0	1396976	955	93
0	1398469	956	140
0	1400187	957	163
0	1401854	958	174
0	1403279	959	160
0	1404824	960	155
0	1406245	961	132
0	1407798	962	150
0	1409216	963	121
0	1410540	964	127
0	1412064	965	129
0	1413512	966	123
0	1415196	967	173
0	1416657	968	132
0	1418044	969	132
0	1419285	970	129
0	1420948	971	162
0	1422191	972	118
0	1423999	973	173
0	1425477	974	131
0	1426893	975	133
0	1428003	976	111
0	1429237	977	133
0	1430696	978	146
0	1432283	979	134
0	1433951	980	170
0	1435276	981	124
0	1436511	982	118
0	1438134	983	150
0	1439738	984	153
0	1441326	985	155
0	1442890	986	143
0	1444285	987	126
0	1446034	988	158
0	1447581	989	150
0	1448543	990	76
0	1450147	991	165
0	1451658	992	148
0	1453006	993	123
0	1454476	994	131
0	1456095	995	148
0	1457338	996	108
0	1458854	997	151
0	1460169	998	112
0	1461463	999	139
0	1463272	1000	193
0	1464744	1001	119
0	1466155	1002	142
0	1467441	1003	119
0	1469071	1004	159
0	1470497	1005	139
0	1472048	1006	142
0	1473470	1007	135
0	1475261	1008	160
0	1476778	1009	138
0	1478074	1010	112
0	1479324	1011	115
0	1480787	1012	138
0	1482063	1013	125
0	1483375	1014	129
0	1484869	1015	165
0	1486196	1016	128
0	1487339	1017	98
0	1488795	1018	139
0	1489905	1019	101
0	1491765	1020	176
0	1493209	1021	149
0	1494497	1022	119
0	1496036	1023	162
0	1497447	1024	132
0	1498754	1025	134
0	1500108	1026	107
0	1501830	1027	171
0	1503092	1028	113
0	1504803	1029	140
0	1506186	1030	133
0	1507632	1031	151
0	1508961	1032	128
0	1510231	1033	115
0	1511895	1034	159
0	1513167	1035	117
0	1514727	1036	155
0	1516450	1037	160
0	1517895	1038	126
0	1519433	1039	139
0	1521012	1040	157
0	1522505	1041	132
0	1524004	1042	150
0	1525348	1043	135
0	1526804	1044	135
0	1528278	1045	145
0	1529742	1046	127
0	1531095	1047	134
0	1532667	1048	159
0	1534291	1049	137
0	1535703	1050	136
0	1537226	1051	146
0	1538422	1052	117
0	1539760	1053	127
0	1541098	1054	119
0	1542635	1055	150
0	1544134	1056	150
0	1545572	1057	125
0	1547214	1058	163
0	1548565	1059	134
0	1550050	1060	131
0	1551328	1061	123
0	1552752	1062	137
0	1554058	1063	103
0	1555574	1064	157
0	1557062	1065	147
0	1558396	1066	113
0	1560023	1067	140
0	1561735	1068	155
0	1563424	1069	156
0	1565098	1070	166
0	1566458	1071	121
0	1567639	1072	102
0	1569204	1073	154
0	1570574	1074	115
0	1572034	1075	137
0	1573548	1076	147
0	1574957	1077	148
0	1576496	1078	150
0	1578091	1079	174
0	1579526	1080	135
0	1580764	1081	125
0	1582366	1082	161
0	1583839	1083	144
0	1585495	1084	163
0	1586882	1085	130
0	1588279	1086	128
0	1589433	1087	99
0	1590719	1088	123
0	1592009	1089	107
0	1593648	1090	165
0	1595086	1091	147
0	1596510	1092	133
0	1598285	1093	190
0	1599784	1094	158
0	1601420	1095	167
0	1603008	1096	147
0	1604406	1097	131
0	1605926	1098	137
0	1607200	1099	95
0	1608832	1100	144
0	1610216	1101	121
0	1611791	1102	166
0	1612961	1103	97
0	1614580	1104	168
0	1616235	1105	168
0	1617871	1106	179
0	1619028	1107	120
0	1620767	1108	164
0	1622163	1109	123
0	1623581	1110	138
0	1624992	1111	132
0	1626114	1112	115
0	1627646	1113	163
0	1629198	1114	153
0	1630558	1115	139
0	1632258	1116	159
0	1633607	1117	110
0	1635105	1118	147
0	1636605	1119	151
0	1638050	1120	143
0	1639204	1121	99
0	1640777	1122	156
0	1641955	1123	105
0	1643394	1124	144
0	1645382	1125	205
0	1646844	1126	123
0	1648553	1127	168
0	1649994	1128	128
0	1651594	1129	157
0	1653291	1130	197
0	1654429	1131	101
0	1655874	1132	126
0	1657426	1133	127
0	1658874	1134	137
0	1660354	1135	127
0	1661625	1136	106
0	1663136	1137	160
0	1664635	1138	148
0	1666094	1139	142
0	1667319	1140	121
0	1668597	1141	117
0	1670136	1142	154
0	1671561	1143	136
0	1673133	1144	163
0	1674531	1145	149
0	1675824	1146	118
0	1677531	1147	170
0	1678928	1148	130
0	1680643	1149	166
0	1681725	1150	98
0	1682931	1151	97
0	1684242	1152	128
0	1685662	1153	153
0	1687096	1154	121
0	1688630	1155	149
0	1689772	1156	117
0	1691505	1157	172
0	1692903	1158	131
0	1694507	1159	171
0	1696046	1160	163
0	1697359	1161	124
0	1698887	1162	135
0	1700139	1163	107
0	1701688	1164	144
0	1703297	1165	164
0	1704733	1166	149
0	1706004	1167	130
0	1707468	1168	133
0	1708611	1169	114
0	1709826	1170	111
0	1711107	1171	134
0	1712680	1172	152
0	1714330	1173	163
0	1716011	1174	168
0	1717497	1175	131
0	1718950	1176	130
0	1720296	1177	139
0	1722064	1178	183
0	1723467	1179	138
0	1724858	1180	149
0	1726445	1181	140
0	1727713	1182	107
0	1729046	1183	118
0	1730516	1184	133
0	1731958	1185	147
0	1733520	1186	169
0	1735391	1187	162
0	1737128	1188	188
0	1738585	1189	140
0	1740165	1190	150
0	1741345	1191	99
0	1742602	1192	134
0	1744336	1193	175
0	1746058	1194	181
0	1747592	1195	149
0	1748803	1196	104
0	1750237	1197	129
0	1751711	1198	151
0	1753038	1199	130
0	1754589	1200	143
0	1756208	1201	176
0	1757520	1202	133
0	1759132	1203	173
0	1760270	1204	107
0	1761911	1205	164
0	1763029	1206	119
0	1764283	1207	103
0	1766019	1208	169
0	1767353	1209	119
0	1768740	1210	143
0	1770072	1211	123
0	1771366	1212	127
0	1772654	1213	115
0	1774013	1214	148
0	1775460	1215	142
0	1776529	1216	104
0	1777904	1217	118
0	1779753	1218	184
0	1781329	1219	147
0	1782842	1220	143
0	1784139	1221	132
0	1785402	1222	120
0	1786764	1223	131
0	1788159	1224	150
0	1789545	1225	123
0	1791106	1226	144
0	1792311	1227	122
0	1793446	1228	96
0	1794828	1229	139
0	1796234	1230	122
0	1797722	1231	125
0	1799051	1232	140
0	1800699	1233	169
0	1802081	1234	127
0	1803551	1235	143
0	1805466	1236	206
0	1806963	1237	146
0	1808477	1238	135
0	1810089	1239	153
0	1811364	1240	115
0	1812943	1241	160
0	1814503	1242	143
0	1815960	1243	138
0	1817298	1244	121
0	1818860	1245	137
0	1820304	1246	131
0	1821793	1247	140
0	1823026	1248	110
0	1824539	1249	154
0	1826125	1250	166
0	1827329	1251	113
0	1828626	1252	124
0	1830112	1253	141
0	1831646	1254	121
0	1833163	1255	144
0	1834724	1256	156
0	1836161	1257	138
0	1837494	1258	140
0	1839242	1259	179
0	1840545	1260	117
0	1841898	1261	108
0	1843325	1262	148
0	1844443	1263	97
0	1845908	1264	142
0	1847465	1265	142
0	1848948	1266	154
0	1850503	1267	142
0	1851798	1268	118
0	1853320	1269	145
0	1854628	1270	130
0	1856113	1271	142
0	1857439	1272	117
0	1858948	1273	138
0	1860648	1274	175
0	1862252	1275	169
0	1863522	1276	119
0	1865265	1277	178
0	1866790	1278	142
0	1868428	1279	165
0	1869836	1280	160
0	1871228	1281	141
0	1872694	1282	137
0	1874305	1283	150
0	1875505	1284	111
0	1876870	1285	140
0	1878336	1286	123
0	1880069	1287	168
0	1881408	1288	134
0	1883165	1289	190
0	1884901	1290	168
0	1886310	1291	138
0	1887892	1292	157
0	1889148	1293	127
0	1890727	1294	154
0	1891950	1295	106
0	1893097	1296	102
0	1894738	1297	156
0	1896257	1298	146
0	1897997	1299	145
0	1899585	1300	162
0	1901256	1301	168
0	1902935	1302	170
0	1904925	1303	191
0	1906495	1304	161
0	1907956	1305	118
0	1909624	1306	157
0	1911070	1307	155
0	1912716	1308	177
0	1913984	1309	127
0	1915562	1310	162
0	1916988	1311	143
0	1918266	1312	131
0	1919593	1313	122
0	1920729	1314	105
0	1922151	1315	135
0	1923633	1316	137
0	1925274	1317	166
0	1926651	1318	126
0	1928032	1319	124
0	1929594	1320	144
0	1931201	1321	138
0	1932664	1322	126
0	1934270	1323	147
0	1936110	1324	173
0	1937475	1325	120
0	1939344	1326	162
0	1941015	1327	150
0	1942523	1328	131
0	1943839	1329	121
0	1945390	1330	159
0	1946766	1331	119
0	1948355	1332	150
0	1949946	1333	162
0	1951227	1334	130
0	1952739	1335	145
0	1954234	1336	136
0	1955625	1337	120
0	1956892	1338	96
0	1958268	1339	131
0	1959567	1340	125
0	1961079	1341	155
0	1962545	1342	149
0	1963912	1343	132
0	1965472	1344	137
0	1966907	1345	142
0	1968509	1346	139
0	1970139	1347	161
0	1972037	1348	199
0	1973406	1349	128
0	1974656	1350	114
0	1976018	1351	129
0	1977132	1352	101
0	1978420	1353	109
0	1979766	1354	131
0	1981150	1355	131
0	1982593	1356	140
0	1983913	1357	127
0	1985229	1358	115
0	1986658	1359	144
0	1987892	1360	130
0	1989272	1361	127
0	1990688	1362	151
0	1992205	1363	142
0	1994295	1364	209
0	1996062	1365	174
0	1997442	1366	137
0	1998884	1367	141
0	2000434	1368	143
0	2001892	1369	133
0	2003428	1370	140
0	2004874	1371	161
0	2006266	1372	131
0	2007383	1373	92
0	2008540	1374	100
0	2010099	1375	150
0	2011258	1376	110
0	2012769	1377	158
0	2014569	1378	173
0	2016063	1379	141
0	2017367	1380	100
0	2018583	1381	113
0	2020028	1382	130
0	2021623	1383	154
0	2023161	1384	173
0	2024481	1385	127
0	2025990	1386	120
0	2027545	1387	150
0	2028637	1388	85
0	2030339	1389	163
0	2031616	1390	117
0	2033035	1391	140
0	2034483	1392	137
0	2036013	1393	147
0	2037686	1394	156
0	2039230	1395	149
0	2040772	1396	151
0	2042329	1397	148
0	2043710	1398	120
0	2045024	1399	129
0	2046184	1400	104
0	2047607	1401	148
0	2049059	1402	153
0	2050425	1403	131
0	2051596	1404	102
0	2052944	1405	143
0	2053993	1406	86
0	2055138	1407	104
0	2056414	1408	127
0	2057573	1409	108
0	2058722	1410	107
0	2060131	1411	148
0	2061587	1412	141
0	2063273	1413	159
0	2064955	1414	161
0	2066336	1415	126
0	2068052	1416	161
0	2069358	1417	123
0	2070539	1418	108
0	2072224	1419	166
0	2073614	1420	160
0	2075167	1421	150
0	2076589	1422	127
0	2077858	1423	122
0	2079064	1424	107
0	2080547	1425	142
0	2082081	1426	147
0	2083216	1427	106
0	2084577	1428	128
0	2086089	1429	133
0	2087256	1430	141
0	2088860	1431	153
0	2089984	1432	101
0	2091396	1433	149
0	2092745	1434	122
0	2094348	1435	148
0	2095436	1436	93
0	2096929	1437	160
0	2098211	1438	127
0	2099495	1439	117
0	2100804	1440	137
0	2102279	1441	142
0	2103864	1442	136
0	2105439	1443	154
0	2107112	1444	158
0	2108759	1445	146
0	2110371	1446	169
0	2111686	1447	110
0	2113247	1448	170
0	2114397	1449	119
0	2115777	1450	122
0	2117236	1451	128
0	2118562	1452	117
0	2120021	1453	156
0	2121750	1454	168
0	2122958	1455	119
0	2124155	1456	120
0	2125752	1457	148
0	2127116	1458	139
0	2128907	1459	180
0	2130388	1460	147
0	2131917	1461	158
0	2133269	1462	127
0	2134484	1463	102
0	2135690	1464	111
0	2136882	1465	117
0	2138592	1466	179
0	2139918	1467	133
0	2141113	1468	112
0	2142427	1469	129
0	2143854	1470	147
0	2145535	1471	168
0	2146979	1472	137
0	2148511	1473	129
0	2150241	1474	161
0	2151679	1475	139
0	2153387	1476	173
0	2154698	1477	120
0	2156242	1478	141
0	2157646	1479	139
0	2158883	1480	105
0	2159979	1481	97
0	2161589	1482	155
0	2163105	1483	155
0	2164514	1484	138
0	2165858	1485	125
0	2167085	1486	114
0	2168632	1487	146
0	2169899	1488	118
0	2171073	1489	109
0	2172752	1490	155
0	2174470	1491	171
0	2175844	1492	143
0	2177455	1493	166
0	2178742	1494	114
0	2180065	1495	146
0	2181739	1496	173
0	2183215	1497	143
0	2185020	1498	166
0	2186249	1499	106
0	2187790	1500	135
0	2189304	1501	155
0	2190674	1502	127
0	2192442	1503	173
0	2194204	1504	199
0	2195695	1505	134
0	2197229	1506	159
0	2198926	1507	160
0	2200758	1508	159
0	2202225	1509	128
0	2203500	1510	133
0	2205079	1511	154
0	2206554	1512	154
0	2208187	1513	152
0	2209389	1514	91
0	2210650	1515	112
0	2211889	1516	116
0	2213208	1517	128
0	2214607	1518	134
0	2215834	1519	106
0	2217246	1520	132
0	2218563	1521	120
0	2220203	1522	141
0	2221789	1523	155
0	2223301	1524	133
0	2224687	1525	141
0	2226060	1526	126
0	2227711	1527	186
0	2228821	1528	111
0	2229976	1529	108
0	2231688	1530	194
0	2233361	1531	178
0	2234871	1532	137
0	2236047	1533	109
0	2237487	1534	135
0	2238836	1535	122
0	2240650	1536	171
0	2242087	1537	118
0	2243703	1538	167
0	2244871	1539	109
0	2246293	1540	146
0	2247509	1541	125
0	2248931	1542	135
0	2250623	1543	161
0	2251916	1544	120
0	2253273	1545	128
0	2254458	1546	108
0	2256000	1547	155
0	2257657	1548	162
0	2259119	1549	153
0	2260716	1550	151
0	2262072	1551	117
0	2263686	1552	163
0	2265463	1553	180
0	2267130	1554	162
0	2268534	1555	141
0	2269589	1556	98
0	2270850	1557	116
0	2272468	1558	167
0	2274009	1559	162
0	2275354	1560	143
0	2276742	1561	135
0	2277948	1562	115
0	2279215	1563	146
0	2280680	1564	140
0	2281921	1565	108
0	2283681	1566	147
0	2285334	1567	146
0	2286758	1568	147
0	2287999	1569	116
0	2289776	1570	171
0	2291352	1571	163
0	2292764	1572	121
0	2294324	1573	157
0	2295752	1574	147
0	2296763	1575	92
0	2298377	1576	147
0	2299783	1577	135
0	2301099	1578	105
0	2302637	1579	145
0	2304019	1580	132
0	2305447	1581	129
0	2307205	1582	175
0	2308879	1583	151
0	2310195	1584	129
0	2311605	1585	145
0	2313246	1586	174
0	2314844	1587	175
0	2316093	1588	118
0	2317433	1589	113
0	2318750	1590	135
0	2320072	1591	129
0	2321664	1592	161
0	2322825	1593	100
0	2324370	1594	140
0	2325752	1595	119
0	2326737	1596	80
0	2328496	1597	150
0	2329777	1598	132
0	2331034	1599	124
0	2332430	1600	120
0	2334109	1601	162
0	2335570	1602	140
0	2336984	1603	147
0	2338608	1604	145
0	2339981	1605	144
0	2341518	1606	152
0	2343107	1607	142
0	2344384	1608	126
0	2345819	1609	126
0	2347091	1610	128
0	2348439	1611	129
0	2349930	1612	134
0	2351445	1613	134
0	2352878	1614	136