version 3
run SimulationTime-222-20240108-13:21:59-9568
attr configname SimulationTime
attr datetime 20240108-13:21:59
attr datetimef 20240108-132159
attr experiment SimulationTime
attr inifile omnetpp.ini
attr iterationvars ""
attr iterationvarsd ""
attr iterationvarsf ""
attr measurement ""
attr network System
attr processid 9568
attr repetition 222
attr replication #222
attr resultdir results
attr runnumber 222
attr seedset 222
config **.cpu.rate 1000
config **.hd.rateProcessing 250
config **.webServer.web_server_rate 100
config **.p1 0.35
config **.p2 0.40
config network System
config num-rngs 4
config **.cpu.rng-0 0
config **.cpu.rng-1 1
config **.hd.rng-0 2
config **.webServer.rng-0 3
config repeat 500
config seed-set 222
config sim-time-limit 10000s
config **.client.numClients 40

vector 0 System.server.cpu requestCounterStat:vector ETV
attr recordingmode vector
attr source requestCounter
vector 1 System.server.hd utilizationHdStat:vector ETV
attr recordingmode vector
attr source utilizationHd
vector 2 System.server.cpu utilizationCpuStat:vector ETV
attr recordingmode vector
attr source utilizationCpu
vector 3 System.webServer utilizationWsStat:vector ETV
attr recordingmode vector
attr source utilizationWs
0	1812	1	161
0	3571	2	166
0	5143	3	153
0	6533	4	119
0	8279	5	167
0	9907	6	157
0	11370	7	132
0	12964	8	137
0	14285	9	136
0	15492	10	107
0	16968	11	151
0	18557	12	148
0	20008	13	146
0	21644	14	169
0	23223	15	154
0	24528	16	116
0	26051	17	126
0	27413	18	131
0	28821	19	133
0	30211	20	142
0	31552	21	128
0	32925	22	116
0	34576	23	150
0	36226	24	161
0	37728	25	145
0	39223	26	126
0	40597	27	147
0	41695	28	101
0	43163	29	139
0	44476	30	131
0	46083	31	156
0	47613	32	155
0	49139	33	135
0	50247	34	99
0	51862	35	170
0	53063	36	108
0	54239	37	109
0	55899	38	163
0	57660	39	162
0	58879	40	105
0	60616	41	186
0	62294	42	181
0	63548	43	123
0	64906	44	115
0	66500	45	155
0	67839	46	134
0	69292	47	146
0	70666	48	143
0	71972	49	135
0	73712	50	174
0	75426	51	189
0	77399	52	208
0	78983	53	143
0	80299	54	125
0	81924	55	164
0	83398	56	131
0	84754	57	117
0	86403	58	176
0	87461	59	91
0	88969	60	154
0	90624	61	164
0	92148	62	145
0	93781	63	164
0	95081	64	127
0	96684	65	162
0	97913	66	100
0	99262	67	130
0	100653	68	134
0	102026	69	136
0	103776	70	182
0	105530	71	171
0	107340	72	179
0	109102	73	159
0	110554	74	133
0	112115	75	146
0	113634	76	132
0	115171	77	148
0	116836	78	154
0	118272	79	151
0	119898	80	142
0	121258	81	137
0	122624	82	123
0	123936	83	117
0	125726	84	163
0	127204	85	155
0	128604	86	125
0	130188	87	159
0	131650	88	143
0	133398	89	165
0	135066	90	162
0	136446	91	125
0	137905	92	126
0	139545	93	171
0	140813	94	115
0	142607	95	163
0	143996	96	124
0	145115	97	98
0	146946	98	172
0	148355	99	134
0	149839	100	142
0	151247	101	155
0	152713	102	155
0	154395	103	149
0	155800	104	118
0	156978	105	109
0	158722	106	189
0	160050	107	137
0	161315	108	126
0	162623	109	137
0	163907	110	108
0	165517	111	165
0	167126	112	166
0	168508	113	135
0	169883	114	134
0	171285	115	145
0	172801	116	153
0	174592	117	192
0	175854	118	115
0	177044	119	99
0	178265	120	115
0	179288	121	102
0	180635	122	110
0	182336	123	166
0	183876	124	141
0	185185	125	110
0	186564	126	144
0	188097	127	146
0	189839	128	191
0	191278	129	136
0	192280	130	112
0	193544	131	125
0	194806	132	115
0	196321	133	150
0	197747	134	117
0	199399	135	169
0	200700	136	108
0	202483	137	184
0	203890	138	134
0	205108	139	111
0	206576	140	140
0	208288	141	171
0	209955	142	150
0	211136	143	112
0	212458	144	117
0	213639	145	102
0	215069	146	145
0	216654	147	138
0	218047	148	124
0	219827	149	171
0	221496	150	151
0	222622	151	107
0	224113	152	142
0	225339	153	123
0	226749	154	123
0	228282	155	164
0	229639	156	144
0	230983	157	113
0	232662	158	162
0	234040	159	121
0	235596	160	146
0	236846	161	113
0	238242	162	139
0	239930	163	159
0	241416	164	129
0	243073	165	174
0	244213	166	101
0	245766	167	162
0	247368	168	159
0	248786	169	143
0	250195	170	151
0	251486	171	130
0	253247	172	152
0	254659	173	129
0	256071	174	133
0	257609	175	139
0	259230	176	170
0	260555	177	116
0	262267	178	179
0	263866	179	162
0	265009	180	121
0	266569	181	157
0	267956	182	126
0	269757	183	206
0	270888	184	100
0	272249	185	132
0	273911	186	153
0	275280	187	134
0	277320	188	221
0	278736	189	133
0	280266	190	154
0	281553	191	126
0	283102	192	152
0	284356	193	125
0	285750	194	121
0	287136	195	143
0	288803	196	154
0	290248	197	136
0	291980	198	193
0	293390	199	107
0	295042	200	148
0	296545	201	146
0	297921	202	141
0	299514	203	140
0	300763	204	112
0	302309	205	151
0	303628	206	112
0	304852	207	123
0	306626	208	159
0	308097	209	126
0	309727	210	182
0	310834	211	104
0	312530	212	163
0	313977	213	122
0	315274	214	114
0	317071	215	182
0	318617	216	143
0	320191	217	151
0	321329	218	101
0	322795	219	157
0	324157	220	118
0	325657	221	141
0	326684	222	86
0	328121	223	140
0	329737	224	145
0	331245	225	135
0	332556	226	120
0	333758	227	123
0	335340	228	147
0	336456	229	97
0	338129	230	177
0	339290	231	106
0	340844	232	159
0	342118	233	127
0	343568	234	139
0	345580	235	195
0	347023	236	144
0	348349	237	131
0	349654	238	92
0	351299	239	178
0	352754	240	153
0	354311	241	146
0	355959	242	171
0	357459	243	145
0	358998	244	144
0	360563	245	152
0	362277	246	167
0	363926	247	154
0	365593	248	160
0	366862	249	110
0	368180	250	132
0	369546	251	135
0	370999	252	136
0	372641	253	183
0	374066	254	140
0	375403	255	114
0	376899	256	135
0	378368	257	136
0	379665	258	134
0	381086	259	124
0	382416	260	124
0	383923	261	150
0	385189	262	119
0	386753	263	149
0	388113	264	133
0	389542	265	140
0	390895	266	122
0	392287	267	131
0	393209	268	79
0	394862	269	160
0	396675	270	179
0	397667	271	97
0	398825	272	93
0	400035	273	93
0	401226	274	94
0	402562	275	121
0	404022	276	137
0	405073	277	94
0	406417	278	119
0	407763	279	133
0	409293	280	150
0	410699	281	139
0	412353	282	167
0	413918	283	148
0	415170	284	121
0	416439	285	118
0	417754	286	132
0	419424	287	179
0	420907	288	142
0	422423	289	161
0	423945	290	142
0	425517	291	141
0	426865	292	123
0	428099	293	127
0	429531	294	119
0	431151	295	151
0	432727	296	171
0	434484	297	152
0	436067	298	138
0	437314	299	112
0	438691	300	137
0	440486	301	164
0	441784	302	129
0	443405	303	166
0	445166	304	190
0	446334	305	117
0	447907	306	144
0	449066	307	110
0	450370	308	121
0	451824	309	119
0	453515	310	169
0	454778	311	130
0	455979	312	120
0	457521	313	135
0	458658	314	108
0	460144	315	151
0	461708	316	149
0	463091	317	142
0	464613	318	155
0	465889	319	121
0	467397	320	130
0	468766	321	138
0	470294	322	153
0	471845	323	130
0	473442	324	154
0	475070	325	169
0	476878	326	189
0	478429	327	154
0	480212	328	144
0	481940	329	181
0	483800	330	168
0	485342	331	149
0	486743	332	126
0	487938	333	124
0	489299	334	140
0	490884	335	166
0	492149	336	120
0	493698	337	142
0	495295	338	154
0	496749	339	131
0	498310	340	147
0	499824	341	151
0	501424	342	143
0	502744	343	119
0	504619	344	186
0	506026	345	146
0	507608	346	155
0	509321	347	162
0	510793	348	139
0	512143	349	129
0	513684	350	133
0	515214	351	129
0	516441	352	126
0	517816	353	122
0	519161	354	114
0	520807	355	151
0	522288	356	140
0	524073	357	182
0	525555	358	145
0	527165	359	161
0	528788	360	153
0	530460	361	167
0	532017	362	140
0	533670	363	142
0	535031	364	134
0	536487	365	141
0	538053	366	149
0	539500	367	142
0	541066	368	159
0	542633	369	136
0	544476	370	189
0	546028	371	149
0	547806	372	189
0	549271	373	126
0	550715	374	149
0	552368	375	160
0	553744	376	121
0	555246	377	147
0	556757	378	150
0	558463	379	161
0	559956	380	133
0	561351	381	110
0	562698	382	128
0	564111	383	146
0	565786	384	158
0	567237	385	128
0	568776	386	160
0	570276	387	137
0	571753	388	146
0	573335	389	171
0	574701	390	106
0	575847	391	109
0	577166	392	128
0	578532	393	127
0	580029	394	144
0	581805	395	167
0	583027	396	127
0	584425	397	129
0	586246	398	166
0	587557	399	122
0	589248	400	155
0	590659	401	132
0	592179	402	147
0	593583	403	133
0	594973	404	121
0	596248	405	108
0	597970	406	165
0	599636	407	159
0	601032	408	157
0	602600	409	149
0	603988	410	156
0	605295	411	134
0	606535	412	119
0	608060	413	154
0	609709	414	168
0	611422	415	170
0	613039	416	154
0	614880	417	180
0	616261	418	128
0	617697	419	145
0	619113	420	122
0	620531	421	125
0	621870	422	138
0	623283	423	130
0	625097	424	173
0	626686	425	168
0	627939	426	100
0	629040	427	92
0	630293	428	118
0	631925	429	151
0	633087	430	106
0	634344	431	112
0	635733	432	144
0	637263	433	145
0	639008	434	170
0	640645	435	148
0	641799	436	101
0	643246	437	148
0	644766	438	141
0	646091	439	118
0	647724	440	157
0	649333	441	148
0	650760	442	134
0	652370	443	135
0	653998	444	149
0	655591	445	166
0	656953	446	129
0	658315	447	139
0	659604	448	102
0	660792	449	119
0	661663	450	65
0	663167	451	149
0	664817	452	131
0	666292	453	158
0	667777	454	140
0	669350	455	152
0	670901	456	146
0	672446	457	166
0	673802	458	135
0	674952	459	115
0	676836	460	174
0	678124	461	123
0	679503	462	134
0	680884	463	126
0	682471	464	142
0	683589	465	111
0	685093	466	171
0	686579	467	157
0	688014	468	148
0	689369	469	126
0	691241	470	190
0	692500	471	110
0	693948	472	139
0	695786	473	171
0	697622	474	181
0	699163	475	160
0	700679	476	131
0	701943	477	93
0	703516	478	170
0	705189	479	152
0	706897	480	164
0	708037	481	105
0	709630	482	140
0	711198	483	157
0	712807	484	144
0	714322	485	152
0	715305	486	88
0	716527	487	119
0	717861	488	119
0	719366	489	148
0	721134	490	172
0	722586	491	137
0	724105	492	142
0	725733	493	161
0	726987	494	127
0	728076	495	92
0	729404	496	133
0	730780	497	127
0	732371	498	158
0	733417	499	93
0	734710	500	115
0	735864	501	111
0	737395	502	154
0	738760	503	144
0	740519	504	190
0	741892	505	140
0	743369	506	132
0	744638	507	124
0	745966	508	131
0	747709	509	164
0	749301	510	164
0	750835	511	137
0	752216	512	130
0	753777	513	138
0	755386	514	148
0	756610	515	123
0	758107	516	146
0	759287	517	125
0	760500	518	106
0	761929	519	136
0	763124	520	105
0	764447	521	118
0	766076	522	156
0	767479	523	138
0	768993	524	143
0	770532	525	144
0	772226	526	181
0	773514	527	117
0	774834	528	119
0	776342	529	135
0	777759	530	143
0	779322	531	142
0	780634	532	133
0	782128	533	163
0	783542	534	139
0	784753	535	114
0	786244	536	154
0	787792	537	153
0	788989	538	110
0	790499	539	145
0	792218	540	177
0	793591	541	124
0	795104	542	158
0	796551	543	118
0	797937	544	117
0	799407	545	159
0	800657	546	135
0	802229	547	155
0	803222	548	94
0	804198	549	89
0	805434	550	112
0	806440	551	87
0	807949	552	148
0	809056	553	98
0	810284	554	115
0	811632	555	133
0	813049	556	138
0	814667	557	175
0	816103	558	141
0	817282	559	98
0	818874	560	156
0	820533	561	170
0	822239	562	157
0	823329	563	101
0	824669	564	119
0	825855	565	113
0	826961	566	105
0	828399	567	145
0	829683	568	109
0	830913	569	115
0	832644	570	173
0	834331	571	166
0	836208	572	168
0	837604	573	137
0	838863	574	116
0	840351	575	143
0	841955	576	147
0	843261	577	125
0	844828	578	136
0	846139	579	124
0	847610	580	155
0	849393	581	180
0	850681	582	113
0	852010	583	128
0	853429	584	136
0	854983	585	137
0	856384	586	140
0	857901	587	138
0	859668	588	164
0	861150	589	155
0	862507	590	131
0	863890	591	130
0	865363	592	140
0	866717	593	159
0	868305	594	153
0	869929	595	157
0	871065	596	85
0	872447	597	143
0	873926	598	130
0	875276	599	135
0	877167	600	189
0	878840	601	148
0	880159	602	118
0	881801	603	143
0	883279	604	141
0	884610	605	136
0	886022	606	129
0	887185	607	90
0	888831	608	163
0	890021	609	111
0	891280	610	129
0	892915	611	170
0	894401	612	143
0	895576	613	98
0	896959	614	124
0	898290	615	112
0	899774	616	141
0	901399	617	136
0	902962	618	154
0	904332	619	135
0	905617	620	119
0	906850	621	120
0	908436	622	165
0	909840	623	137
0	911032	624	107
0	912270	625	123
0	913982	626	175
0	915339	627	144
0	916640	628	126
0	917997	629	132
0	919512	630	117
0	920554	631	93
0	921850	632	127
0	923366	633	147
0	925066	634	153
0	926948	635	167
0	928371	636	144
0	929914	637	138
0	931503	638	168
0	932580	639	92
0	934163	640	159
0	935555	641	135
0	937192	642	144
0	938449	643	102
0	939902	644	166
0	941710	645	173
0	943336	646	179
0	944478	647	97
0	946188	648	183
0	947333	649	116
0	948911	650	142
0	950341	651	133
0	951757	652	137
0	953046	653	112
0	954454	654	123
0	956156	655	165
0	958196	656	217
0	959908	657	187
0	961350	658	133
0	962747	659	148
0	964343	660	156
0	966247	661	179
0	967818	662	146
0	969529	663	144
0	971074	664	132
0	972360	665	127
0	973555	666	110
0	974842	667	128
0	976185	668	124
0	977523	669	123
0	978843	670	132
0	980186	671	140
0	981771	672	154
0	983177	673	141
0	984844	674	158
0	986432	675	145
0	988096	676	155
0	989152	677	93
0	990343	678	94
0	991862	679	152
0	993291	680	115
0	994831	681	163
0	996133	682	125
0	997642	683	138
0	999205	684	150
0	1000931	685	169
0	1002643	686	167
0	1004148	687	156
0	1005580	688	137
0	1007219	689	164
0	1008520	690	113
0	1009877	691	120
0	1011363	692	127
0	1012870	693	150
0	1014229	694	134
0	1015676	695	142
0	1017381	696	178
0	1019037	697	147
0	1020556	698	146
0	1021705	699	96
0	1023282	700	147
0	1024622	701	141
0	1025813	702	120
0	1027308	703	126
0	1028503	704	104
0	1029853	705	143
0	1031062	706	120
0	1032262	707	125
0	1033725	708	146
0	1034872	709	102
0	1035789	710	69
0	1037485	711	181
0	1038924	712	120
0	1040389	713	148
0	1041880	714	134
0	1042983	715	94
0	1044498	716	142
0	1045997	717	138
0	1047335	718	149
0	1048870	719	136
0	1050530	720	160
0	1051983	721	144
0	1053573	722	141
0	1054969	723	141
0	1056294	724	150
0	1057622	725	109
0	1058774	726	103
0	1060111	727	134
0	1061600	728	142
0	1063265	729	136
0	1064652	730	141
0	1066573	731	188
0	1068667	732	201
0	1070095	733	153
0	1071608	734	140
0	1073278	735	185
0	1074590	736	121
0	1076007	737	140
0	1077612	738	162
0	1078961	739	132
0	1080531	740	146
0	1081977	741	151
0	1083162	742	116
0	1084750	743	153
0	1086118	744	125
0	1087618	745	145
0	1089031	746	144
0	1090902	747	186
0	1092340	748	147
0	1093976	749	147
0	1095689	750	153
0	1096975	751	121
0	1098302	752	116
0	1099774	753	119
0	1101442	754	143
0	1103099	755	156
0	1104448	756	120
0	1105964	757	145
0	1107361	758	132
0	1108713	759	127
0	1110454	760	171
0	1111844	761	145
0	1113250	762	155
0	1114790	763	157
0	1116018	764	123
0	1117211	765	100
0	1118656	766	122
0	1120288	767	163
0	1121814	768	141
0	1123384	769	147
0	1125051	770	161
0	1126582	771	162
0	1128100	772	155
0	1129981	773	196
0	1131467	774	159
0	1132961	775	153
0	1134247	776	113
0	1135756	777	168
0	1137203	778	134
0	1138913	779	163
0	1140467	780	166
0	1142549	781	219
0	1143857	782	113
0	1145560	783	158
0	1147264	784	167
0	1148796	785	143
0	1150308	786	153
0	1151595	787	130
0	1152838	788	122
0	1154120	789	131
0	1155607	790	155
0	1157292	791	190
0	1158520	792	121
0	1160070	793	159
0	1161669	794	154
0	1162999	795	119
0	1164290	796	142
0	1165742	797	133
0	1167180	798	127
0	1168628	799	133
0	1170164	800	152
0	1171725	801	144
0	1173077	802	145
0	1174568	803	134
0	1176124	804	145
0	1177763	805	162
0	1179139	806	133
0	1180724	807	156
0	1181868	808	109
0	1183187	809	122
0	1184635	810	154
0	1186097	811	153
0	1187926	812	184
0	1189485	813	138
0	1191028	814	128
0	1192363	815	128
0	1194281	816	175
0	1195958	817	148
0	1197483	818	144
0	1198949	819	129
0	1200325	820	136
0	1201726	821	122
0	1202980	822	127
0	1204148	823	111
0	1205764	824	131
0	1206975	825	128
0	1208175	826	99
0	1209530	827	120
0	1211196	828	157
0	1212570	829	129
0	1213775	830	101
0	1215616	831	188
0	1216523	832	84
0	1218046	833	134
0	1219516	834	137
0	1221037	835	148
0	1222345	836	129
0	1223778	837	124
0	1225158	838	129
0	1226724	839	153
0	1228280	840	146
0	1229639	841	134
0	1230853	842	95
0	1232146	843	112
0	1233613	844	140
0	1235205	845	153
0	1236691	846	133
0	1238003	847	129
0	1239708	848	160
0	1241123	849	122
0	1242442	850	123
0	1243472	851	89
0	1244996	852	145
0	1246482	853	135
0	1247949	854	144
0	1249262	855	122
0	1250762	856	129
0	1252151	857	122
0	1253411	858	107
0	1254616	859	104
0	1256379	860	157
0	1257859	861	157
0	1259360	862	152
0	1260642	863	113
0	1261974	864	123
0	1263624	865	153
0	1265206	866	151
0	1266501	867	116
0	1267642	868	100
0	1268824	869	99
0	1270103	870	107
0	1271591	871	151
0	1273146	872	150
0	1274698	873	159
0	1276276	874	153
0	1277723	875	142
0	1278903	876	115
0	1280302	877	138
0	1282031	878	180
0	1283256	879	114
0	1284930	880	148
0	1286369	881	132
0	1287989	882	169
0	1289174	883	116
0	1290961	884	196
0	1292168	885	116
0	1293945	886	178
0	1295602	887	178
0	1296738	888	93
0	1297914	889	101
0	1299422	890	136
0	1300992	891	153
0	1302180	892	115
0	1303670	893	123
0	1304958	894	117
0	1305917	895	82
0	1307680	896	162
0	1309469	897	168
0	1311111	898	159
0	1312682	899	156
0	1314148	900	124
0	1315605	901	144
0	1317038	902	120
0	1318271	903	110
0	1320012	904	170
0	1321599	905	126
0	1322747	906	109
0	1324300	907	144
0	1325583	908	120
0	1327250	909	160
0	1328654	910	132
0	1330368	911	163
0	1331826	912	147
0	1333375	913	154
0	1334891	914	139
0	1336425	915	147
0	1337975	916	139
0	1339807	917	185
0	1341465	918	165
0	1342966	919	158
0	1344282	920	116
0	1345793	921	160
0	1347134	922	128
0	1348319	923	100
0	1349884	924	162
0	1351679	925	174
0	1352983	926	117
0	1354116	927	108
0	1355500	928	149
0	1357347	929	174
0	1358973	930	152
0	1360731	931	183
0	1362159	932	137
0	1363399	933	129
0	1365102	934	174
0	1366388	935	115
0	1367766	936	145
0	1369319	937	144
0	1370823	938	157
0	1372383	939	151
0	1373858	940	147
0	1375401	941	142
0	1376888	942	138
0	1378230	943	139
0	1379547	944	128
0	1381097	945	137
0	1382307	946	121
0	1383699	947	137
0	1385300	948	160
0	1386940	949	165
0	1388742	950	182
0	1389939	951	100
0	1391684	952	156
0	1393212	953	151
0	1394548	954	133
0	1395987	955	148
0	1397362	956	126
0	1398721	957	144
0	1400011	958	135
0	1401477	959	137
0	1402728	960	127
0	1404420	961	149
0	1405996	962	149
0	1407799	963	168
0	1409511	964	173
0	1411010	965	140
0	1412795	966	162
0	1414226	967	134
0	1415972	968	179
0	1417621	969	158
0	1418975	970	120
0	1420631	971	161
0	1422369	972	191
0	1423732	973	116
0	1425301	974	158
0	1426846	975	148
0	1428677	976	178
0	1430290	977	160
0	1431660	978	131
0	1433093	979	126
0	1434573	980	138
0	1435780	981	106
0	1436980	982	113
0	1438453	983	158
0	1440148	984	166
0	1442069	985	186
0	1443834	986	166
0	1445798	987	183
0	1446964	988	97
0	1448370	989	125
0	1449609	990	111
0	1451152	991	142
0	1452449	992	126
0	1454005	993	159
0	1455668	994	166
0	1457265	995	160
0	1459245	996	195
0	1460558	997	122
0	1461870	998	131
0	1463186	999	119
0	1464510	1000	124
0	1466113	1001	156
0	1467511	1002	123
0	1468755	1003	115
0	1470210	1004	148
0	1471612	1005	151
0	1473171	1006	164
0	1474771	1007	155
0	1476235	1008	141
0	1477694	1009	154
0	1478951	1010	103
0	1480241	1011	117
0	1481681	1012	127
0	1483462	1013	168
0	1484913	1014	146
0	1486457	1015	141
0	1487789	1016	129
0	1489209	1017	127
0	1490523	1018	121
0	1491912	1019	120
0	1493311	1020	149
0	1494651	1021	123
0	1496102	1022	124
0	1497114	1023	89
0	1498908	1024	175
0	1500351	1025	142
0	1501773	1026	153
0	1503369	1027	147
0	1504761	1028	113
0	1506539	1029	179
0	1507901	1030	118
0	1509303	1031	139
0	1510667	1032	125
0	1512047	1033	121
0	1513519	1034	153
0	1515162	1035	194
0	1516562	1036	125
0	1518298	1037	167
0	1519660	1038	125
0	1520922	1039	127
0	1522642	1040	176
0	1524283	1041	158
0	1525816	1042	142
0	1527428	1043	153
0	1528948	1044	151
0	1530470	1045	157
0	1531977	1046	158
0	1533156	1047	102
0	1534482	1048	119
0	1535789	1049	114
0	1537057	1050	110
0	1538549	1051	149
0	1540108	1052	164
0	1541407	1053	132
0	1542782	1054	148
0	1543994	1055	109
0	1545363	1056	128
0	1546518	1057	108
0	1547773	1058	112
0	1549330	1059	168
0	1551015	1060	157
0	1552301	1061	119
0	1553994	1062	146
0	1555397	1063	146
0	1557101	1064	173
0	1558277	1065	113
0	1559464	1066	98
0	1560858	1067	133
0	1562348	1068	141
0	1563838	1069	149
0	1565291	1070	149
0	1566659	1071	131
0	1568119	1072	149
0	1569555	1073	145
0	1571309	1074	161
0	1572728	1075	130
0	1574442	1076	157
0	1575835	1077	130
0	1577106	1078	114
0	1578711	1079	156
0	1580121	1080	124
0	1581963	1081	183
0	1583457	1082	131
0	1584881	1083	139
0	1586362	1084	140
0	1587420	1085	95
0	1588616	1086	127
0	1590183	1087	168
0	1591470	1088	128
0	1593149	1089	152
0	1594695	1090	158
0	1596272	1091	156
0	1597630	1092	127
0	1599191	1093	152
0	1600780	1094	144
0	1602121	1095	128
0	1603479	1096	139
0	1604719	1097	121
0	1606250	1098	152
0	1607774	1099	149
0	1609020	1100	124
0	1610316	1101	127
0	1612140	1102	191
0	1613849	1103	188
0	1615367	1104	147
0	1616806	1105	138
0	1618261	1106	154
0	1619718	1107	138
0	1621211	1108	154
0	1622567	1109	141
0	1624356	1110	169
0	1625987	1111	178
0	1627704	1112	178
0	1629165	1113	144
0	1630752	1114	150
0	1631978	1115	115
0	1633478	1116	173
0	1634673	1117	96
0	1635846	1118	118
0	1637531	1119	160
0	1639042	1120	145
0	1640423	1121	126
0	1641599	1122	119
0	1643003	1123	145
0	1644271	1124	121
0	1645582	1125	110
0	1646795	1126	122
0	1648207	1127	135
0	1649703	1128	135
0	1651433	1129	181
0	1653082	1130	155
0	1654499	1131	134
0	1655997	1132	139
0	1657908	1133	196
0	1659596	1134	157
0	1661417	1135	174
0	1662860	1136	140
0	1664085	1137	116
0	1665539	1138	163
0	1666964	1139	120
0	1668662	1140	166
0	1670441	1141	176
0	1671932	1142	144
0	1673313	1143	132
0	1674599	1144	117
0	1676039	1145	131
0	1677399	1146	133
0	1678809	1147	137
0	1680684	1148	206
0	1682126	1149	111
0	1683850	1150	170
0	1685414	1151	157
0	1686806	1152	123
0	1687923	1153	94
0	1689437	1154	151
0	1691003	1155	141
0	1692497	1156	131
0	1694212	1157	170
0	1695760	1158	151
0	1697250	1159	155
0	1698500	1160	110
0	1699741	1161	108
0	1701335	1162	149
0	1702622	1163	126
0	1704190	1164	137
0	1705578	1165	123
0	1706784	1166	119
0	1708340	1167	141
0	1709947	1168	166
0	1711537	1169	157
0	1712994	1170	131
0	1714460	1171	137
0	1715575	1172	102
0	1717033	1173	147
0	1718496	1174	146
0	1720096	1175	157
0	1721695	1176	156
0	1722938	1177	108
0	1724414	1178	141
0	1725983	1179	172
0	1727489	1180	150
0	1728846	1181	120
0	1730198	1182	125
0	1732213	1183	186
0	1733787	1184	147
0	1735098	1185	118
0	1736631	1186	144
0	1737979	1187	125
0	1739494	1188	146
0	1740992	1189	135
0	1742731	1190	161
0	1744026	1191	136
0	1745357	1192	124
0	1746904	1193	146
0	1748259	1194	134
0	1749523	1195	117
0	1751189	1196	145
0	1752822	1197	162
0	1754288	1198	131
0	1755806	1199	151
0	1757278	1200	164
0	1758793	1201	140
0	1759993	1202	115
0	1761510	1203	152
0	1762940	1204	143
0	1764584	1205	169
0	1766309	1206	170
0	1767846	1207	148
0	1769500	1208	161
0	1770957	1209	136
0	1772657	1210	160
0	1774003	1211	127
0	1775769	1212	165
0	1777218	1213	134
0	1778664	1214	147
0	1780301	1215	140
0	1781667	1216	131
0	1783256	1217	142
0	1784641	1218	122
0	1786125	1219	141
0	1787481	1220	136
0	1788742	1221	124
0	1790336	1222	139
0	1791987	1223	144
0	1793434	1224	124
0	1795031	1225	140
0	1796752	1226	188
0	1798274	1227	143
0	1799578	1228	129
0	1801093	1229	162
0	1802343	1230	118
0	1803771	1231	149
0	1805259	1232	131
0	1806540	1233	142
0	1807879	1234	118
0	1809199	1235	133
0	1810722	1236	142
0	1812126	1237	141
0	1813475	1238	116
0	1815042	1239	144
0	1816903	1240	165
0	1818394	1241	148
0	1819661	1242	116
0	1821154	1243	144
0	1822847	1244	172
0	1824572	1245	148
0	1826118	1246	159
0	1827595	1247	142
0	1828837	1248	109
0	1829869	1249	89
0	1831152	1250	127
0	1832482	1251	119
0	1833863	1252	130
0	1835484	1253	160
0	1836878	1254	125
0	1838899	1255	230
0	1840651	1256	147
0	1842115	1257	147
0	1843224	1258	104
0	1844840	1259	167
0	1846623	1260	165
0	1848332	1261	188
0	1849734	1262	125
0	1851514	1263	161
0	1853093	1264	174
0	1854527	1265	123
0	1856392	1266	196
0	1858091	1267	146
0	1859430	1268	122
0	1861025	1269	158
0	1862225	1270	116
0	1863474	1271	116
0	1864733	1272	118
0	1865972	1273	118
0	1867380	1274	133
0	1868472	1275	101
0	1869821	1276	132
0	1871062	1277	112
0	1872452	1278	123
0	1873732	1279	119
0	1875283	1280	159
0	1876780	1281	136
0	1878182	1282	135
0	1879678	1283	157
0	1881114	1284	149
0	1882614	1285	141
0	1883914	1286	109
0	1885378	1287	129
0	1887041	1288	156
0	1888555	1289	151
0	1889818	1290	107
0	1891417	1291	158
0	1892996	1292	158
0	1894588	1293	145
0	1895803	1294	102
0	1897223	1295	125
0	1898713	1296	129
0	1900163	1297	137
0	1901545	1298	129
0	1902818	1299	116
0	1904407	1300	137
0	1905790	1301	126
0	1907249	1302	154
0	1908701	1303	143
0	1910550	1304	174
0	1912413	1305	186
0	1913797	1306	125
0	1915423	1307	163
0	1917261	1308	169
0	1918809	1309	145
0	1920182	1310	133
0	1921727	1311	132
0	1922894	1312	90
0	1924512	1313	159
0	1926280	1314	165
0	1927577	1315	132
0	1929048	1316	126
0	1930453	1317	134
0	1931910	1318	132
0	1933497	1319	174
0	1935051	1320	164
0	1936688	1321	156
0	1938150	1322	129
0	1939664	1323	149
0	1940960	1324	119
0	1942359	1325	136
0	1943697	1326	129
0	1945557	1327	179
0	1946781	1328	107
0	1948294	1329	148
0	1949942	1330	172
0	1951395	1331	152
0	1953033	1332	163
0	1954540	1333	156
0	1956367	1334	184
0	1958192	1335	184
0	1959713	1336	142
0	1961394	1337	164
0	1962924	1338	139
0	1964665	1339	176
0	1966076	1340	151
0	1967378	1341	121
0	1968855	1342	142
0	1970462	1343	168
0	1971801	1344	138
0	1973416	1345	170
0	1974836	1346	125
0	1976242	1347	155
0	1977508	1348	127
0	1978452	1349	89
0	1979822	1350	128
0	1981105	1351	116
0	1982489	1352	153
0	1983617	1353	93
0	1985194	1354	170
0	1986908	1355	181
0	1988346	1356	127
0	1989770	1357	145
0	1991398	1358	179
0	1993016	1359	163
0	1994372	1360	114
0	1995871	1361	142
0	1997577	1362	159
0	1998831	1363	109
0	2000115	1364	121
0	2001267	1365	95
0	2002935	1366	165
0	2004873	1367	191
0	2006056	1368	106
0	2007548	1369	169
0	2009057	1370	147
0	2010626	1371	156
0	2012028	1372	103
0	2013094	1373	107
0	2014774	1374	151
0	2016408	1375	133
0	2017793	1376	132
0	2019185	1377	133
0	2020493	1378	129
0	2021762	1379	118
0	2022944	1380	108
0	2024520	1381	153
0	2025952	1382	121
0	2027472	1383	169
0	2029079	1384	156
0	2030596	1385	150
0	2032043	1386	136
0	2033539	1387	155
0	2035217	1388	151
0	2036596	1389	146
0	2038182	1390	138
0	2039649	1391	126
0	2040860	1392	122
0	2042072	1393	107
0	2043916	1394	165
0	2045841	1395	178
0	2047085	1396	109
0	2048663	1397	163
0	2049927	1398	137
0	2051338	1399	134
0	2052753	1400	141
0	2054370	1401	160
0	2055626	1402	135
0	2057260	1403	165
0	2058632	1404	125
0	2060011	1405	126
0	2061641	1406	165
0	2063104	1407	156
0	2064358	1408	123
0	2065955	1409	148
0	2067451	1410	148
0	2069114	1411	162
0	2070672	1412	147
0	2072329	1413	156
0	2073893	1414	139
0	2075539	1415	163
0	2077210	1416	174
0	2078285	1417	104
0	2079749	1418	145
0	2081319	1419	137
0	2082862	1420	135
0	2084111	1421	116
0	2085911	1422	171
0	2087430	1423	152
0	2088906	1424	149
0	2090402	1425	141
0	2091722	1426	125
0	2093191	1427	144
0	2094688	1428	148
0	2096285	1429	170
0	2097780	1430	131
0	2099072	1431	125
0	2100534	1432	139
0	2102264	1433	163
0	2103934	1434	155
0	2105537	1435	162
0	2106849	1436	123
0	2107985	1437	91
0	2109474	1438	140
0	2110896	1439	141
0	2112416	1440	142
0	2113891	1441	134
0	2115368	1442	138
0	2116955	1443	174
0	2118573	1444	185
0	2119686	1445	104
0	2120937	1446	114
0	2122607	1447	165
0	2123958	1448	128
0	2125417	1449	122
0	2127010	1450	175
0	2128357	1451	130
0	2129730	1452	124
0	2130996	1453	103
0	2132355	1454	130
0	2133723	1455	129
0	2135290	1456	166
0	2136877	1457	158
0	2138369	1458	159
0	2139862	1459	150
0	2141454	1460	132
0	2142986	1461	145
0	2144455	1462	154
0	2145932	1463	156
0	2147266	1464	125
0	2148982	1465	185
0	2150454	1466	133
0	2151943	1467	154
0	2153094	1468	116
0	2154107	1469	92
0	2155558	1470	135
0	2157038	1471	143
0	2158195	1472	96
0	2159527	1473	125
0	2161127	1474	153
0	2162548	1475	136
0	2163996	1476	129
0	2165589	1477	160
0	2166927	1478	123
0	2168133	1479	115
0	2169521	1480	132
0	2171214	1481	170
0	2172964	1482	157
0	2174250	1483	125
0	2175490	1484	99
0	2177208	1485	163
0	2179215	1486	200
0	2180568	1487	138
0	2181977	1488	140
0	2183589	1489	169
0	2184969	1490	136
0	2186435	1491	165
0	2187898	1492	136
0	2188973	1493	108
0	2190297	1494	115
0	2191801	1495	137
0	2193443	1496	139
0	2194655	1497	101
0	2195934	1498	126
0	2197386	1499	161
0	2199217	1500	183
0	2200456	1501	100
0	2202172	1502	161
0	2203877	1503	178
0	2205430	1504	150
0	2206906	1505	143
0	2208265	1506	126
0	2209741	1507	151
0	2211382	1508	134
0	2212677	1509	128
0	2214282	1510	147
0	2215771	1511	136
0	2217227	1512	153
0	2218847	1513	165
0	2220208	1514	124
0	2221527	1515	116
0	2222757	1516	133
0	2224091	1517	121
0	2225697	1518	137
0	2226832	1519	100
0	2228423	1520	151
0	2229941	1521	143
0	2231281	1522	125
0	2233054	1523	158
0	2234539	1524	154
0	2235653	1525	111
0	2236748	1526	106
0	2238088	1527	113
0	2239519	1528	122
0	2241145	1529	167
0	2242525	1530	134
0	2243968	1531	134
0	2245285	1532	126
0	2246661	1533	131
0	2248006	1534	116
0	2249754	1535	187
0	2251495	1536	148
0	2252959	1537	127
0	2254319	1538	139
0	2256148	1539	190
0	2257408	1540	126
0	2258749	1541	122
0	2259830	1542	110
0	2261120	1543	115
0	2262481	1544	122
0	2263557	1545	91
0	2264858	1546	132
0	2266431	1547	146
0	2268485	1548	207
0	2270222	1549	186
0	2271614	1550	136
0	2272950	1551	139
0	2274353	1552	138
0	2275624	1553	118
0	2277128	1554	147
0	2278677	1555	144
0	2280260	1556	162
0	2281733	1557	134
0	2283659	1558	187
0	2285295	1559	147
0	2286553	1560	102
0	2288385	1561	179
0	2289948	1562	146
0	2291265	1563	112
0	2292687	1564	129
0	2294092	1565	154
0	2295764	1566	177
0	2296869	1567	98
0	2298409	1568	157
0	2299609	1569	113
0	2300964	1570	123
0	2302564	1571	153
0	2303949	1572	126
0	2305591	1573	177
0	2307006	1574	156
0	2308473	1575	130
0	2309990	1576	144
0	2311261	1577	130
0	2312762	1578	146
0	2314308	1579	151
0	2316030	1580	144
0	2317390	1581	133
0	2318725	1582	142
0	2320013	1583	129
0	2321486	1584	134
0	2322763	1585	118
0	2324065	1586	139
0	2325639	1587	143
0	2327202	1588	160
0	2328403	1589	122
0	2330043	1590	160
0	2331475	1591	141
0	2332691	1592	113
0	2334230	1593	150
0	2335485	1594	130
0	2336702	1595	112
0	2338088	1596	129
0	2339662	1597	161
0	2341363	1598	184
0	2342975	1599	149
0	2344135	1600	92
0	2345611	1601	145
0	2347038	1602	142
0	2348191	1603	120
0	2349399	1604	113
0	2350869	1605	131
0	2352444	1606	138
0	2354056	1607	143
0	2355232	1608	107
0	2356608	1609	125
0	2358285	1610	171
0	2359672	1611	136
0	2361069	1612	120
0	2362676	1613	156
0	2363805	1614	94
0	2365644	1615	216