version 3
run SimulationTime-342-20240107-16:19:11-21368
attr configname SimulationTime
attr datetime 20240107-16:19:11
attr datetimef 20240107-161911
attr experiment SimulationTime
attr inifile omnetpp.ini
attr iterationvars ""
attr iterationvarsd ""
attr iterationvarsf ""
attr measurement ""
attr network System
attr processid 21368
attr repetition 342
attr replication #342
attr resultdir results
attr runnumber 342
attr seedset 342
config **.cpu.rate 1000
config **.hd.rateProcessing 250
config **.webServer.web_server_rate 100
config **.p1 0.35
config **.p2 0.40
config network System
config num-rngs 4
config **.cpu.rng-0 0
config **.cpu.rng-1 1
config **.hd.rng-0 2
config **.webServer.rng-0 3
config repeat 500
config seed-set 342
config sim-time-limit 10000s
config **.client.numClients 40

vector 0 System.server.cpu requestCounterStat:vector ETV
attr recordingmode vector
attr source requestCounter
vector 1 System.server.hd utilizationHdStat:vector ETV
attr recordingmode vector
attr source utilizationHd
vector 2 System.server.cpu utilizationCpuStat:vector ETV
attr recordingmode vector
attr source utilizationCpu
vector 3 System.webServer utilizationWsStat:vector ETV
attr recordingmode vector
attr source utilizationWs
0	1888	1	189
0	3645	2	156
0	5091	3	145
0	6908	4	176
0	8276	5	123
0	9461	6	104
0	10969	7	139
0	12196	8	122
0	13713	9	156
0	15443	10	160
0	16926	11	140
0	18436	12	133
0	19748	13	131
0	21343	14	144
0	22495	15	95
0	24083	16	153
0	25487	17	143
0	27289	18	169
0	28844	19	136
0	30374	20	128
0	31931	21	130
0	33281	22	129
0	34491	23	105
0	36124	24	158
0	37637	25	156
0	39044	26	124
0	40323	27	106
0	41505	28	123
0	43189	29	181
0	44451	30	138
0	46035	31	145
0	47688	32	148
0	49384	33	165
0	51233	34	176
0	52603	35	143
0	54458	36	192
0	55954	37	159
0	57152	38	123
0	58882	39	155
0	60498	40	156
0	61854	41	125
0	63246	42	137
0	64826	43	165
0	66304	44	139
0	67436	45	97
0	68825	46	116
0	70306	47	136
0	72072	48	187
0	73360	49	131
0	74833	50	141
0	76475	51	159
0	77791	52	129
0	79397	53	147
0	80620	54	126
0	81823	55	100
0	83048	56	106
0	84300	57	121
0	86021	58	188
0	87333	59	133
0	88910	60	151
0	90163	61	104
0	91595	62	137
0	92805	63	119
0	94336	64	142
0	95473	65	108
0	96865	66	125
0	98370	67	132
0	99652	68	119
0	101094	69	143
0	102470	70	112
0	104031	71	144
0	105547	72	135
0	107006	73	142
0	109237	74	236
0	110890	75	156
0	112516	76	167
0	113838	77	135
0	115016	78	117
0	116266	79	113
0	117707	80	135
0	119244	81	128
0	120763	82	142
0	122289	83	163
0	123598	84	112
0	124813	85	102
0	126482	86	164
0	128085	87	142
0	129515	88	123
0	130989	89	137
0	132459	90	126
0	134039	91	161
0	135462	92	128
0	137148	93	163
0	138548	94	129
0	139623	95	102
0	141181	96	153
0	142724	97	146
0	144348	98	147
0	145812	99	145
0	147308	100	142
0	148971	101	156
0	150408	102	136
0	151766	103	133
0	153298	104	143
0	154727	105	132
0	156503	106	181
0	158159	107	165
0	159746	108	150
0	161212	109	135
0	162469	110	113
0	163925	111	129
0	165178	112	122
0	166544	113	123
0	167637	114	104
0	169302	115	160
0	171135	116	186
0	172478	117	116
0	173807	118	128
0	175313	119	131
0	176901	120	154
0	178638	121	156
0	180219	122	140
0	181630	123	144
0	183089	124	130
0	184735	125	151
0	186292	126	154
0	187566	127	107
0	189185	128	160
0	190676	129	148
0	192447	130	179
0	193910	131	142
0	195744	132	187
0	197041	133	118
0	198640	134	156
0	200007	135	114
0	201364	136	130
0	202867	137	156
0	204142	138	130
0	206012	139	181
0	207449	140	125
0	208940	141	150
0	210046	142	83
0	211209	143	110
0	212762	144	146
0	214323	145	154
0	216059	146	161
0	217660	147	152
0	219507	148	198
0	221085	149	165
0	222122	150	103
0	223858	151	183
0	225210	152	129
0	226737	153	156
0	228175	154	145
0	229707	155	161
0	231060	156	132
0	232348	157	125
0	233567	158	98
0	234809	159	115
0	236391	160	152
0	237771	161	143
0	238979	162	121
0	240541	163	131
0	241981	164	137
0	243454	165	136
0	244986	166	151
0	246507	167	136
0	247933	168	131
0	249171	169	107
0	250493	170	116
0	251642	171	106
0	252871	172	134
0	254545	173	161
0	255821	174	109
0	257166	175	120
0	258836	176	163
0	259900	177	79
0	261237	178	146
0	262620	179	128
0	263886	180	122
0	265659	181	192
0	267270	182	170
0	268359	183	98
0	269897	184	137
0	271421	185	151
0	273033	186	143
0	274365	187	135
0	276114	188	174
0	277633	189	142
0	279056	190	135
0	280516	191	131
0	281900	192	113
0	283282	193	131
0	285114	194	185
0	286594	195	147
0	288131	196	150
0	289504	197	150
0	290756	198	101
0	292524	199	179
0	294071	200	137
0	295437	201	131
0	297313	202	177
0	298576	203	118
0	299960	204	135
0	301656	205	167
0	303288	206	147
0	304975	207	168
0	306162	208	100
0	307544	209	131
0	309206	210	144
0	310785	211	150
0	312153	212	117
0	313595	213	151
0	314822	214	108
0	316078	215	101
0	317603	216	130
0	319114	217	144
0	320633	218	140
0	321773	219	105
0	323242	220	155
0	324690	221	137
0	326316	222	139
0	328020	223	161
0	329625	224	168
0	331015	225	133
0	332317	226	121
0	333998	227	150
0	335706	228	139
0	337275	229	184
0	339097	230	178
0	340703	231	171
0	342163	232	117
0	343557	233	163
0	344764	234	108
0	346299	235	152
0	347678	236	138
0	349398	237	157
0	350882	238	147
0	352522	239	161
0	353797	240	121
0	355172	241	122
0	357004	242	199
0	358399	243	142
0	359641	244	123
0	361096	245	138
0	362431	246	122
0	364209	247	181
0	365632	248	134
0	367133	249	132
0	368413	250	126
0	370003	251	147
0	371155	252	89
0	372734	253	146
0	374019	254	116
0	375294	255	110
0	376955	256	166
0	378538	257	160
0	379730	258	117
0	380966	259	137
0	382254	260	120
0	383644	261	117
0	384831	262	132
0	386136	263	106
0	387642	264	137
0	389247	265	152
0	390893	266	163
0	392627	267	175
0	394352	268	172
0	395993	269	146
0	397166	270	107
0	398681	271	140
0	400186	272	160
0	401927	273	164
0	403404	274	140
0	404957	275	164
0	406537	276	147
0	408008	277	170
0	409497	278	142
0	410873	279	125
0	412259	280	118
0	413647	281	127
0	415001	282	133
0	416790	283	194
0	418217	284	144
0	419569	285	137
0	421021	286	145
0	422466	287	144
0	424255	288	172
0	425431	289	115
0	426638	290	101
0	428126	291	147
0	429768	292	145
0	431076	293	111
0	432768	294	169
0	434455	295	164
0	435999	296	143
0	437633	297	191
0	439204	298	150
0	440504	299	123
0	441769	300	121
0	443023	301	119
0	444469	302	137
0	446072	303	136
0	447647	304	138
0	449131	305	137
0	450798	306	170
0	452259	307	148
0	453807	308	157
0	455381	309	175
0	456792	310	141
0	458127	311	138
0	459646	312	158
0	461435	313	180
0	462899	314	141
0	464087	315	105
0	465746	316	144
0	467496	317	157
0	468871	318	122
0	470139	319	109
0	471719	320	160
0	473222	321	138
0	474588	322	107
0	476264	323	177
0	477749	324	134
0	479219	325	137
0	480762	326	140
0	482207	327	146
0	483535	328	117
0	485167	329	161
0	486220	330	87
0	487509	331	116
0	488960	332	134
0	490362	333	141
0	491725	334	128
0	492911	335	103
0	494146	336	110
0	495742	337	147
0	497088	338	119
0	498285	339	118
0	499497	340	112
0	501056	341	158
0	502396	342	129
0	503742	343	123
0	505289	344	162
0	506896	345	152
0	508136	346	107
0	509197	347	96
0	510758	348	160
0	512141	349	134
0	513501	350	124
0	514888	351	114
0	516135	352	118
0	517727	353	155
0	519240	354	132
0	520826	355	173
0	522418	356	161
0	524021	357	170
0	525612	358	150
0	526848	359	109
0	528067	360	113
0	529709	361	147
0	531126	362	138
0	532286	363	103
0	533974	364	181
0	535410	365	125
0	536823	366	158
0	538349	367	159
0	539866	368	178
0	541356	369	153
0	543055	370	187
0	544194	371	98
0	545446	372	129
0	546656	373	119
0	548109	374	152
0	549831	375	171
0	551319	376	139
0	552838	377	148
0	554346	378	133
0	555961	379	166
0	557320	380	129
0	558772	381	143
0	560034	382	109
0	561499	383	152
0	562822	384	140
0	564184	385	133
0	565491	386	122
0	566843	387	121
0	568124	388	114
0	569686	389	161
0	571355	390	163
0	572801	391	141
0	574373	392	149
0	575908	393	140
0	577417	394	154
0	578926	395	150
0	580406	396	137
0	582187	397	158
0	583400	398	120
0	585047	399	164
0	586633	400	162
0	588347	401	167
0	589854	402	142
0	591276	403	145
0	592806	404	149
0	594264	405	133
0	595735	406	128
0	596915	407	121
0	598488	408	146
0	599917	409	134
0	601348	410	141
0	602617	411	108
0	604179	412	135
0	605753	413	147
0	606980	414	122
0	608793	415	176
0	610439	416	151
0	611904	417	132
0	613278	418	115
0	614668	419	139
0	615867	420	107
0	617734	421	180
0	619201	422	154
0	620329	423	109
0	621647	424	115
0	623172	425	168
0	624484	426	125
0	626075	427	146
0	627485	428	151
0	628921	429	137
0	630572	430	147
0	632059	431	156
0	633403	432	123
0	634653	433	117
0	636214	434	152
0	637384	435	107
0	638796	436	121
0	640555	437	172
0	642297	438	165
0	643689	439	127
0	645257	440	170
0	646631	441	139
0	648532	442	202
0	650100	443	143
0	651443	444	120
0	652804	445	122
0	654292	446	155
0	655657	447	136
0	656948	448	124
0	658112	449	95
0	659512	450	150
0	661156	451	173
0	662737	452	164
0	664250	453	138
0	665781	454	134
0	667182	455	106
0	668602	456	127
0	669850	457	111
0	671168	458	131
0	672897	459	164
0	674606	460	179
0	675851	461	118
0	677547	462	147
0	679186	463	156
0	680659	464	138
0	681912	465	124
0	683957	466	212
0	685879	467	175
0	687440	468	140
0	688700	469	107
0	690097	470	135
0	691668	471	162
0	693389	472	162
0	695087	473	167
0	696641	474	139
0	698419	475	167
0	699796	476	146
0	701149	477	124
0	702757	478	171
0	704314	479	152
0	705593	480	111
0	706529	481	95
0	708090	482	148
0	709590	483	147
0	711328	484	153
0	712856	485	151
0	714176	486	125
0	715444	487	127
0	716720	488	129
0	718092	489	129
0	719749	490	155
0	721052	491	120
0	722304	492	125
0	723985	493	166
0	725646	494	176
0	727026	495	139
0	728510	496	135
0	729710	497	113
0	731351	498	160
0	732875	499	145
0	734506	500	151
0	736153	501	182
0	737804	502	168
0	739428	503	143
0	741081	504	154
0	742663	505	159
0	744373	506	161
0	745816	507	152
0	747083	508	100
0	748461	509	137
0	749730	510	119
0	751301	511	152
0	753055	512	161
0	754625	513	155
0	755938	514	124
0	757597	515	174
0	758941	516	137
0	760239	517	123
0	761717	518	139
0	763272	519	162
0	764721	520	141
0	766481	521	163
0	767784	522	148
0	769345	523	150
0	770558	524	90
0	771940	525	133
0	773177	526	108
0	774687	527	163
0	775772	528	106
0	777250	529	133
0	778686	530	136
0	780153	531	128
0	781779	532	139
0	783391	533	155
0	784567	534	105
0	786073	535	145
0	787710	536	164
0	789526	537	175
0	791140	538	143
0	792404	539	121
0	793979	540	151
0	795199	541	105
0	796329	542	101
0	797788	543	138
0	799128	544	125
0	800610	545	145
0	802053	546	140
0	803454	547	132
0	805025	548	158
0	806806	549	170
0	808201	550	135
0	809565	551	125
0	811151	552	159
0	812634	553	154
0	814081	554	154
0	815390	555	126
0	816749	556	144
0	818109	557	129
0	819656	558	170
0	821086	559	139
0	822406	560	122
0	824041	561	180
0	825307	562	111
0	826600	563	120
0	827813	564	104
0	829038	565	120
0	830338	566	139
0	831898	567	155
0	833396	568	143
0	834699	569	126
0	836349	570	160
0	837885	571	167
0	839281	572	121
0	840909	573	165
0	842410	574	128
0	843872	575	151
0	845081	576	112
0	846263	577	119
0	847755	578	129
0	849344	579	150
0	851011	580	153
0	852452	581	130
0	853879	582	134
0	855299	583	159
0	856563	584	119
0	858265	585	183
0	859878	586	168
0	861483	587	142
0	862929	588	125
0	864408	589	140
0	865566	590	116
0	867390	591	193
0	868643	592	116
0	870200	593	148
0	871374	594	109
0	872850	595	135
0	874395	596	132
0	875822	597	150
0	877497	598	154
0	879005	599	135
0	880652	600	159
0	882411	601	172
0	883907	602	157
0	885418	603	152
0	886949	604	134
0	888656	605	158
0	890151	606	136
0	891288	607	106
0	893012	608	179
0	894452	609	141
0	895765	610	119
0	897254	611	134
0	898688	612	151
0	900079	613	120
0	901801	614	153
0	903015	615	103
0	904639	616	157
0	906264	617	148
0	907698	618	151
0	909495	619	172
0	910920	620	147
0	912463	621	158
0	913766	622	130
0	915256	623	131
0	916730	624	143
0	918072	625	117
0	919472	626	123
0	920820	627	133
0	922401	628	166
0	923658	629	118
0	925633	630	199
0	927057	631	135
0	928718	632	168
0	929707	633	86
0	931154	634	132
0	932606	635	133
0	934184	636	143
0	935712	637	141
0	936977	638	104
0	938724	639	166
0	940321	640	157
0	942090	641	186
0	943329	642	106
0	945119	643	175
0	946506	644	134
0	947636	645	109
0	949414	646	187
0	950831	647	128
0	952329	648	137
0	953524	649	102
0	954787	650	111
0	956465	651	143
0	957804	652	132
0	959130	653	119
0	960519	654	132
0	962139	655	155
0	963902	656	176
0	965509	657	136
0	967046	658	150
0	968105	659	106
0	969295	660	128
0	970694	661	128
0	971976	662	133
0	973634	663	151
0	974824	664	105
0	976443	665	150
0	977968	666	154
0	979090	667	97
0	980212	668	103
0	981516	669	121
0	983014	670	146
0	984463	671	148
0	985761	672	129
0	987210	673	126
0	988590	674	121
0	989977	675	142
0	991571	676	139
0	993012	677	152
0	994637	678	164
0	995997	679	149
0	997478	680	125
0	999169	681	156
0	1000359	682	107
0	1001578	683	118
0	1003267	684	180
0	1004546	685	114
0	1006204	686	179
0	1007779	687	168
0	1009288	688	146
0	1010914	689	151
0	1012116	690	90
0	1013702	691	157
0	1015194	692	153
0	1016628	693	125
0	1018401	694	164
0	1019851	695	151
0	1021241	696	115
0	1022988	697	148
0	1024489	698	146
0	1025946	699	142
0	1027389	700	139
0	1028593	701	125
0	1029940	702	116
0	1031139	703	100
0	1032572	704	142
0	1033668	705	95
0	1035036	706	133
0	1036338	707	135
0	1037849	708	142
0	1039112	709	102
0	1040538	710	130
0	1041962	711	145
0	1043603	712	180
0	1045336	713	178
0	1046902	714	173
0	1048453	715	162
0	1050121	716	157
0	1051560	717	126
0	1052927	718	106
0	1054252	719	120
0	1055525	720	107
0	1056984	721	126
0	1058429	722	134
0	1059854	723	130
0	1061316	724	131
0	1063097	725	168
0	1064443	726	115
0	1065923	727	133
0	1067218	728	128
0	1068771	729	146
0	1070282	730	161
0	1071795	731	140
0	1073286	732	132
0	1074679	733	138
0	1076047	734	119
0	1077610	735	152
0	1079044	736	143
0	1080419	737	126
0	1082143	738	161
0	1083532	739	126
0	1085571	740	207
0	1087028	741	138
0	1088532	742	143
0	1089644	743	101
0	1091106	744	139
0	1092410	745	139
0	1093831	746	142
0	1095104	747	116
0	1096661	748	174
0	1098020	749	136
0	1099610	750	154
0	1100936	751	131
0	1102568	752	149
0	1103975	753	124
0	1105654	754	148
0	1106965	755	150
0	1108428	756	140
0	1109974	757	153
0	1111627	758	174
0	1113074	759	136
0	1114692	760	176
0	1116535	761	184
0	1118445	762	205
0	1119568	763	108
0	1120929	764	130
0	1122169	765	111
0	1123511	766	115
0	1125061	767	155
0	1126758	768	172
0	1128343	769	156
0	1130136	770	147
0	1131483	771	154
0	1132704	772	126
0	1134159	773	140
0	1135798	774	150
0	1137211	775	140
0	1138829	776	167
0	1140309	777	157
0	1141659	778	123
0	1142874	779	102
0	1144720	780	176
0	1146170	781	137
0	1147414	782	123
0	1148975	783	162
0	1149993	784	91
0	1151489	785	145
0	1152835	786	127
0	1154189	787	117
0	1155518	788	114
0	1157078	789	165
0	1158622	790	126
0	1160002	791	145
0	1161374	792	127
0	1162566	793	107
0	1164062	794	119
0	1165262	795	109
0	1166707	796	168
0	1168083	797	135
0	1169601	798	135
0	1171228	799	156
0	1172801	800	139
0	1174343	801	145
0	1175796	802	138
0	1177239	803	140
0	1178809	804	165
0	1180342	805	138
0	1181611	806	118
0	1183097	807	151
0	1184587	808	147
0	1186246	809	152
0	1187553	810	127
0	1188999	811	127
0	1190605	812	153
0	1192350	813	162
0	1193665	814	138
0	1195070	815	136
0	1196526	816	121
0	1198019	817	140
0	1199906	818	194
0	1201178	819	121
0	1202657	820	155
0	1204284	821	156
0	1205710	822	143
0	1207069	823	130
0	1208550	824	144
0	1209987	825	128
0	1211535	826	143
0	1212871	827	103
0	1214340	828	156
0	1215856	829	135
0	1217094	830	122
0	1218682	831	131
0	1220125	832	134
0	1221422	833	128
0	1223038	834	161
0	1224376	835	135
0	1225863	836	144
0	1227418	837	158
0	1229061	838	162
0	1230689	839	163
0	1232316	840	145
0	1233814	841	125
0	1235241	842	132
0	1236733	843	153
0	1238329	844	165
0	1240027	845	159
0	1241189	846	111
0	1242451	847	111
0	1243763	848	135
0	1245166	849	130
0	1246602	850	126
0	1248150	851	153
0	1249347	852	130
0	1250833	853	157
0	1252117	854	115
0	1253453	855	115
0	1255041	856	169
0	1256448	857	146
0	1257729	858	112
0	1259179	859	127
0	1260440	860	115
0	1261946	861	145
0	1262993	862	96
0	1264771	863	167
0	1266192	864	136
0	1267587	865	144
0	1268776	866	126
0	1270327	867	162
0	1271703	868	141
0	1273332	869	160
0	1274954	870	166
0	1276277	871	132
0	1277767	872	163
0	1279523	873	191
0	1281157	874	149
0	1282738	875	166
0	1284263	876	130
0	1285727	877	123
0	1287704	878	222
0	1289281	879	134
0	1290499	880	102
0	1292046	881	154
0	1293415	882	144
0	1294599	883	105
0	1296126	884	162
0	1297574	885	153
0	1298821	886	114
0	1299851	887	91
0	1301338	888	130
0	1302668	889	123
0	1304352	890	172
0	1306107	891	172
0	1307916	892	186
0	1309200	893	125
0	1310618	894	153
0	1311862	895	115
0	1313300	896	127
0	1314613	897	124
0	1316131	898	163
0	1317779	899	167
0	1318984	900	113
0	1320564	901	145
0	1322362	902	175
0	1323671	903	106
0	1325217	904	157
0	1326550	905	116
0	1328081	906	154
0	1329307	907	113
0	1330731	908	147
0	1332248	909	146
0	1333877	910	165
0	1335500	911	158
0	1337181	912	158
0	1338569	913	135
0	1340293	914	169
0	1341902	915	152
0	1343303	916	132
0	1344806	917	144
0	1346320	918	129
0	1347797	919	148
0	1349324	920	145
0	1350891	921	138
0	1352381	922	147
0	1354050	923	164
0	1355713	924	150
0	1357247	925	159
0	1358720	926	128
0	1360026	927	123
0	1361878	928	169
0	1363376	929	143
0	1364637	930	119
0	1365974	931	108
0	1367354	932	141
0	1368644	933	123
0	1369918	934	119
0	1371494	935	133
0	1372693	936	128
0	1373966	937	130
0	1375245	938	112
0	1376625	939	125
0	1378216	940	155
0	1379661	941	140
0	1381413	942	185
0	1382786	943	122
0	1384519	944	168
0	1385935	945	139
0	1387174	946	100
0	1388467	947	130
0	1389914	948	122
0	1391185	949	104
0	1392386	950	109
0	1393791	951	128
0	1395439	952	175
0	1396667	953	107
0	1397768	954	96
0	1399393	955	156
0	1400728	956	122
0	1402044	957	113
0	1403546	958	147
0	1405321	959	166
0	1406614	960	123
0	1407951	961	128
0	1409849	962	173
0	1411645	963	165
0	1413003	964	131
0	1414898	965	186
0	1416654	966	189
0	1418051	967	138
0	1419358	968	118
0	1420953	969	156
0	1422194	970	121
0	1423500	971	119
0	1425045	972	152
0	1426545	973	145
0	1427952	974	120
0	1429261	975	130
0	1430804	976	152
0	1432169	977	124
0	1433013	978	75
0	1434297	979	119
0	1435674	980	119
0	1437199	981	146
0	1438487	982	129
0	1440025	983	143
0	1441509	984	155
0	1443110	985	152
0	1444234	986	91
0	1445500	987	119
0	1447015	988	146
0	1448462	989	132
0	1449775	990	131
0	1451033	991	113
0	1452656	992	170
0	1454145	993	140
0	1455617	994	129
0	1456963	995	127
0	1458222	996	98
0	1459973	997	166
0	1461344	998	126
0	1462824	999	131
0	1464435	1000	141
0	1465943	1001	139
0	1467579	1002	165
0	1469130	1003	158
0	1470782	1004	161
0	1472279	1005	148
0	1473677	1006	123
0	1475493	1007	169
0	1477021	1008	137
0	1478580	1009	132
0	1479969	1010	137
0	1481474	1011	148
0	1482812	1012	137
0	1484578	1013	167
0	1485960	1014	121
0	1487129	1015	108
0	1489028	1016	178
0	1490416	1017	145
0	1491844	1018	147
0	1493349	1019	134
0	1494904	1020	137
0	1496430	1021	141
0	1497812	1022	135
0	1499427	1023	152
0	1500793	1024	101
0	1502064	1025	104
0	1503481	1026	124
0	1504905	1027	141
0	1506541	1028	163
0	1507921	1029	143
0	1509638	1030	179
0	1511246	1031	149
0	1512477	1032	110
0	1514017	1033	165
0	1515182	1034	108
0	1516533	1035	122
0	1517678	1036	108
0	1519243	1037	152
0	1520860	1038	164
0	1522409	1039	164
0	1523585	1040	112
0	1524796	1041	106
0	1526405	1042	160
0	1528135	1043	175
0	1529516	1044	136
0	1531204	1045	169
0	1532766	1046	177
0	1534310	1047	159
0	1535741	1048	150
0	1537316	1049	138
0	1538689	1050	107
0	1540160	1051	126
0	1541543	1052	122
0	1543332	1053	168
0	1544632	1054	123
0	1546078	1055	143
0	1547510	1056	131
0	1549029	1057	150
0	1550273	1058	115
0	1551719	1059	119
0	1553179	1060	148
0	1554600	1061	134
0	1555997	1062	128
0	1557542	1063	140
0	1558806	1064	109
0	1560432	1065	147
0	1561954	1066	147
0	1563199	1067	114
0	1564324	1068	102
0	1565573	1069	120
0	1567082	1070	141
0	1568701	1071	148
0	1570134	1072	124
0	1571519	1073	140
0	1572793	1074	127
0	1574296	1075	130
0	1575787	1076	140
0	1577228	1077	130
0	1578757	1078	136
0	1580239	1079	123
0	1581509	1080	114
0	1582885	1081	129
0	1584422	1082	146
0	1585788	1083	121
0	1587181	1084	136
0	1588385	1085	125
0	1590138	1086	168
0	1591656	1087	123
0	1592872	1088	113
0	1594254	1089	119
0	1595464	1090	114
0	1596776	1091	121
0	1598205	1092	146
0	1599979	1093	175
0	1601646	1094	156
0	1603174	1095	145
0	1604690	1096	133
0	1606003	1097	126
0	1607606	1098	168
0	1609050	1099	153
0	1610546	1100	160
0	1611619	1101	96
0	1612789	1102	115
0	1614346	1103	166
0	1615994	1104	163
0	1617011	1105	96
0	1618288	1106	122
0	1619867	1107	152
0	1621305	1108	127
0	1622924	1109	156
0	1624630	1110	160
0	1626405	1111	172
0	1627732	1112	128
0	1629344	1113	149
0	1630807	1114	138
0	1632110	1115	120
0	1633776	1116	157
0	1635066	1117	119
0	1636538	1118	147
0	1637905	1119	140
0	1639267	1120	116
0	1640920	1121	150
0	1642456	1122	141
0	1644032	1123	139
0	1645615	1124	156
0	1647192	1125	164
0	1648530	1126	131
0	1650166	1127	149
0	1651664	1128	163
0	1653254	1129	131
0	1654396	1130	98
0	1655758	1131	127
0	1657225	1132	146
0	1658673	1133	141
0	1660113	1134	141
0	1661615	1135	147
0	1663129	1136	151
0	1664949	1137	193
0	1666320	1138	128
0	1667937	1139	168
0	1669520	1140	159
0	1670992	1141	133
0	1672519	1142	154
0	1674069	1143	163
0	1675597	1144	141
0	1677232	1145	150
0	1678982	1146	171
0	1680517	1147	166
0	1681965	1148	155
0	1683740	1149	164
0	1685128	1150	140
0	1686693	1151	174
0	1688336	1152	164
0	1690058	1153	179
0	1691565	1154	140
0	1693345	1155	179
0	1695138	1156	174
0	1696645	1157	144
0	1698114	1158	144
0	1700038	1159	183
0	1701996	1160	194
0	1703515	1161	148
0	1704913	1162	143
0	1706703	1163	189
0	1707926	1164	124
0	1709365	1165	130
0	1710676	1166	138
0	1712332	1167	185
0	1713813	1168	130
0	1715140	1169	104
0	1716845	1170	181
0	1718432	1171	160
0	1720020	1172	165
0	1721551	1173	158
0	1723114	1174	182
0	1724760	1175	159
0	1726229	1176	154
0	1727675	1177	145
0	1728979	1178	111
0	1730415	1179	121
0	1731921	1180	132
0	1733352	1181	142
0	1734636	1182	123
0	1736487	1183	200
0	1738170	1184	150
0	1739628	1185	111
0	1741202	1186	143
0	1742363	1187	112
0	1743784	1188	136
0	1745068	1189	117
0	1746418	1190	122
0	1748035	1191	150
0	1749432	1192	144
0	1751218	1193	177
0	1752646	1194	121
0	1753999	1195	136
0	1755253	1196	119
0	1756583	1197	127
0	1758116	1198	180
0	1759929	1199	192
0	1761437	1200	140
0	1762631	1201	111
0	1763877	1202	111
0	1764982	1203	130
0	1766292	1204	129
0	1767617	1205	136
0	1769263	1206	151
0	1770806	1207	158
0	1772606	1208	185
0	1774113	1209	144
0	1775602	1210	139
0	1777047	1211	140
0	1778611	1212	163
0	1780072	1213	144
0	1781643	1214	168
0	1783267	1215	167
0	1784826	1216	158
0	1786375	1217	158
0	1787894	1218	160
0	1789319	1219	148
0	1790840	1220	155
0	1792329	1221	132
0	1793842	1222	126
0	1795331	1223	148
0	1796614	1224	124
0	1798110	1225	133
0	1799399	1226	122
0	1800640	1227	118
0	1801981	1228	132
0	1803330	1229	140
0	1804877	1230	141
0	1806349	1231	143
0	1808052	1232	172
0	1809518	1233	143
0	1811179	1234	172
0	1812398	1235	110
0	1813722	1236	99
0	1815020	1237	117
0	1816603	1238	160
0	1817963	1239	115
0	1819448	1240	153
0	1820783	1241	106
0	1821680	1242	82
0	1822947	1243	134
0	1824388	1244	136
0	1825796	1245	129
0	1827006	1246	113
0	1828445	1247	150
0	1829751	1248	133
0	1831169	1249	151
0	1832824	1250	153
0	1834123	1251	130
0	1835614	1252	130
0	1837151	1253	148
0	1838491	1254	133
0	1839976	1255	148
0	1841073	1256	102
0	1842473	1257	151
0	1844006	1258	152
0	1845530	1259	141
0	1846889	1260	137
0	1848520	1261	154
0	1850121	1262	160
0	1851708	1263	164
0	1853256	1264	157
0	1854447	1265	116
0	1856026	1266	142
0	1857374	1267	145
0	1858728	1268	139
0	1859987	1269	94
0	1861217	1270	124
0	1862457	1271	107
0	1864121	1272	155
0	1865496	1273	128
0	1867067	1274	142
0	1868473	1275	135
0	1869823	1276	137
0	1871263	1277	125
0	1872695	1278	143
0	1873982	1279	122
0	1875788	1280	170
0	1877186	1281	127
0	1878881	1282	170
0	1880601	1283	173
0	1882136	1284	162
0	1883455	1285	128
0	1885033	1286	127
0	1886514	1287	142
0	1888045	1288	144
0	1889755	1289	171
0	1891105	1290	132
0	1892413	1291	119
0	1894194	1292	182
0	1895724	1293	151
0	1897123	1294	114
0	1898240	1295	96
0	1899991	1296	170
0	1901656	1297	160
0	1902981	1298	136
0	1904386	1299	132
0	1905558	1300	128
0	1907134	1301	157
0	1908685	1302	142
0	1909964	1303	112
0	1911094	1304	105
0	1912687	1305	160
0	1914351	1306	151
0	1915679	1307	109
0	1917099	1308	123
0	1918288	1309	114
0	1919463	1310	91
0	1921295	1311	193
0	1922690	1312	146
0	1924216	1313	151
0	1925840	1314	161
0	1927320	1315	153
0	1929085	1316	160
0	1930938	1317	188
0	1932424	1318	135
0	1933722	1319	119
0	1935305	1320	141
0	1936943	1321	163
0	1938656	1322	182
0	1939916	1323	111
0	1941399	1324	144
0	1942938	1325	148
0	1944215	1326	108
0	1945968	1327	160
0	1947492	1328	129
0	1949210	1329	183
0	1950832	1330	150
0	1952334	1331	135
0	1954134	1332	163
0	1955771	1333	160
0	1957244	1334	132
0	1958760	1335	143
0	1959902	1336	95
0	1961082	1337	97
0	1962378	1338	133
0	1963524	1339	107
0	1965112	1340	152
0	1966325	1341	124
0	1967772	1342	138
0	1969282	1343	147
0	1970992	1344	169
0	1972504	1345	147
0	1973528	1346	95
0	1974939	1347	132
0	1976400	1348	128
0	1977447	1349	86
0	1979179	1350	160
0	1980662	1351	132
0	1982113	1352	138
0	1983508	1353	138
0	1984838	1354	125
0	1986361	1355	126
0	1987653	1356	111
0	1989308	1357	160
0	1990693	1358	134
0	1992281	1359	147
0	1993758	1360	149
0	1995114	1361	119
0	1996989	1362	206
0	1998368	1363	150
0	1999610	1364	119
0	2001249	1365	166
0	2002473	1366	109
0	2003975	1367	139
0	2005626	1368	178
0	2007188	1369	139
0	2008803	1370	165
0	2010003	1371	109
0	2011630	1372	172
0	2013009	1373	148
0	2014274	1374	122
0	2015843	1375	150
0	2017225	1376	143
0	2018559	1377	123
0	2019806	1378	122
0	2021437	1379	158
0	2022859	1380	132
0	2024366	1381	154
0	2025786	1382	139
0	2027248	1383	141
0	2028684	1384	131
0	2030148	1385	129
0	2031474	1386	139
0	2032786	1387	113
0	2034561	1388	178
0	2036059	1389	157
0	2037380	1390	129
0	2038868	1391	157
0	2040353	1392	134
0	2041801	1393	133
0	2043196	1394	142
0	2045016	1395	167
0	2046663	1396	154
0	2048048	1397	152
0	2049617	1398	166
0	2050931	1399	125
0	2052555	1400	184
0	2054147	1401	173
0	2055731	1402	137
0	2057079	1403	129
0	2058762	1404	154
0	2060050	1405	117
0	2061769	1406	166
0	2063201	1407	145
0	2064993	1408	177
0	2066448	1409	142
0	2067824	1410	132
0	2069229	1411	136
0	2070505	1412	121
0	2071898	1413	132
0	2073163	1414	122
0	2074791	1415	155
0	2075981	1416	121
0	2077454	1417	138
0	2078638	1418	101
0	2079993	1419	122
0	2081499	1420	154
0	2083078	1421	150
0	2084418	1422	115
0	2086121	1423	148
0	2087519	1424	147
0	2089031	1425	133
0	2090580	1426	140
0	2092184	1427	141
0	2093808	1428	169
0	2095244	1429	155
0	2097103	1430	183
0	2098904	1431	184
0	2100448	1432	153
0	2102411	1433	184
0	2103775	1434	127
0	2105158	1435	130
0	2106599	1436	130
0	2108162	1437	144
0	2109938	1438	181
0	2111095	1439	88
0	2112634	1440	145
0	2113991	1441	120
0	2115616	1442	168
0	2116872	1443	111
0	2118204	1444	129
0	2119390	1445	105
0	2120775	1446	126
0	2122377	1447	169
0	2124179	1448	167
0	2125515	1449	117
0	2126918	1450	155
0	2128310	1451	117
0	2129835	1452	142
0	2131214	1453	130
0	2132963	1454	176
0	2134413	1455	147
0	2135942	1456	168
0	2137441	1457	138
0	2138820	1458	134
0	2140008	1459	105
0	2141744	1460	158
0	2143279	1461	144
0	2144781	1462	131
0	2146211	1463	135
0	2147584	1464	126
0	2148901	1465	126
0	2150328	1466	132
0	2151916	1467	145
0	2153363	1468	148
0	2154857	1469	151
0	2156406	1470	143
0	2158307	1471	184
0	2159745	1472	147
0	2161508	1473	162
0	2163025	1474	156
0	2164456	1475	126
0	2165837	1476	134
0	2167260	1477	128
0	2168680	1478	141
0	2170034	1479	115
0	2171526	1480	144
0	2172674	1481	95
0	2174172	1482	137
0	2175848	1483	157
0	2177338	1484	135
0	2178553	1485	118
0	2179867	1486	125
0	2181107	1487	123
0	2182595	1488	161
0	2184206	1489	156
0	2185985	1490	187
0	2187478	1491	140
0	2188838	1492	125
0	2190205	1493	130
0	2191848	1494	154
0	2193440	1495	163
0	2195306	1496	161
0	2196696	1497	139
0	2197690	1498	87
0	2199259	1499	148
0	2200566	1500	105
0	2202116	1501	145
0	2203640	1502	131
0	2205078	1503	133
0	2206390	1504	115
0	2207917	1505	138
0	2209310	1506	126
0	2210956	1507	161
0	2212394	1508	139
0	2213804	1509	117
0	2215130	1510	144
0	2216488	1511	119
0	2217896	1512	145
0	2219676	1513	175
0	2221263	1514	142
0	2222644	1515	142
0	2223907	1516	122
0	2225532	1517	170
0	2226893	1518	130
0	2228205	1519	119
0	2229602	1520	145
0	2230905	1521	122
0	2231974	1522	92
0	2233570	1523	143
0	2235273	1524	174
0	2236690	1525	130
0	2237971	1526	112
0	2239173	1527	115
0	2240510	1528	142
0	2241925	1529	138
0	2243329	1530	120
0	2244926	1531	162
0	2246232	1532	139
0	2247581	1533	124
0	2249084	1534	144
0	2250380	1535	103
0	2251578	1536	115
0	2252977	1537	142
0	2254368	1538	134
0	2255945	1539	140
0	2257265	1540	120
0	2258415	1541	101
0	2260203	1542	195
0	2261533	1543	123
0	2262650	1544	106
0	2264329	1545	150
0	2265810	1546	142
0	2267222	1547	133
0	2268813	1548	144
0	2270137	1549	139
0	2271650	1550	167
0	2272863	1551	120
0	2274187	1552	115
0	2275609	1553	145
0	2276861	1554	121
0	2278102	1555	100
0	2279719	1556	152
0	2281339	1557	153
0	2283049	1558	169
0	2284571	1559	137
0	2286115	1560	152
0	2287212	1561	106
0	2288687	1562	140
0	2290204	1563	144
0	2291467	1564	106
0	2292589	1565	103
0	2294272	1566	166
0	2295635	1567	134
0	2297037	1568	123
0	2298652	1569	158
0	2300122	1570	140
0	2301385	1571	120
0	2302606	1572	112
0	2303924	1573	125
0	2305540	1574	177
0	2306961	1575	128
0	2308086	1576	114
0	2309444	1577	107
0	2311029	1578	156
0	2312699	1579	179
0	2313967	1580	104
0	2315278	1581	118
0	2316593	1582	118
0	2318170	1583	138
0	2319615	1584	130
0	2321186	1585	138
0	2322727	1586	148
0	2324257	1587	143
0	2325848	1588	148
0	2327174	1589	125
0	2328707	1590	135
0	2330335	1591	175
0	2331723	1592	119
0	2333214	1593	134
0	2334478	1594	125
0	2335860	1595	143
0	2337417	1596	152
0	2338753	1597	109
0	2340442	1598	152
0	2342302	1599	183
0	2344258	1600	198
0	2345968	1601	179
0	2347209	1602	120
0	2348742	1603	148
0	2350193	1604	146
0	2351522	1605	120
0	2353347	1606	180
0	2355020	1607	172
0	2356625	1608	148
0	2358075	1609	141
0	2359525	1610	158
0	2360996	1611	142
0	2362375	1612	132
0	2364116	1613	180
0	2365547	1614	146