version 3
run SimulationTime-461-20240107-16:20:40-15908
attr configname SimulationTime
attr datetime 20240107-16:20:40
attr datetimef 20240107-162040
attr experiment SimulationTime
attr inifile omnetpp.ini
attr iterationvars ""
attr iterationvarsd ""
attr iterationvarsf ""
attr measurement ""
attr network System
attr processid 15908
attr repetition 461
attr replication #461
attr resultdir results
attr runnumber 461
attr seedset 461
config **.cpu.rate 1000
config **.hd.rateProcessing 250
config **.webServer.web_server_rate 100
config **.p1 0.35
config **.p2 0.40
config network System
config num-rngs 4
config **.cpu.rng-0 0
config **.cpu.rng-1 1
config **.hd.rng-0 2
config **.webServer.rng-0 3
config repeat 500
config seed-set 461
config sim-time-limit 10000s
config **.client.numClients 40

vector 0 System.server.cpu requestCounterStat:vector ETV
attr recordingmode vector
attr source requestCounter
vector 1 System.server.hd utilizationHdStat:vector ETV
attr recordingmode vector
attr source utilizationHd
vector 2 System.server.cpu utilizationCpuStat:vector ETV
attr recordingmode vector
attr source utilizationCpu
vector 3 System.webServer utilizationWsStat:vector ETV
attr recordingmode vector
attr source utilizationWs
0	1937	1	200
0	3567	2	151
0	4891	3	125
0	6191	4	119
0	7460	5	110
0	8879	6	132
0	10336	7	150
0	11889	8	148
0	12997	9	121
0	14446	10	131
0	15951	11	138
0	17649	12	149
0	18756	13	110
0	20223	14	166
0	21764	15	156
0	23189	16	128
0	24651	17	139
0	25934	18	118
0	27362	19	137
0	28761	20	119
0	30213	21	127
0	31621	22	129
0	33165	23	153
0	34507	24	127
0	36319	25	201
0	37936	26	152
0	39733	27	206
0	41298	28	150
0	42842	29	133
0	43992	30	104
0	45397	31	142
0	46717	32	129
0	47967	33	139
0	49370	34	140
0	51373	35	206
0	52933	36	135
0	54261	37	117
0	55739	38	135
0	57054	39	114
0	58728	40	158
0	60465	41	174
0	61847	42	121
0	63316	43	146
0	64969	44	168
0	66512	45	130
0	68035	46	148
0	69594	47	152
0	71049	48	136
0	72595	49	161
0	74069	50	128
0	75346	51	126
0	76884	52	141
0	78284	53	145
0	79842	54	155
0	81512	55	167
0	82648	56	117
0	84222	57	135
0	85424	58	95
0	86848	59	145
0	88135	60	113
0	89874	61	178
0	91353	62	148
0	92763	63	135
0	94288	64	148
0	95687	65	136
0	97215	66	161
0	98513	67	131
0	99977	68	131
0	101391	69	133
0	102896	70	149
0	104477	71	158
0	106268	72	190
0	108114	73	177
0	109868	74	187
0	110952	75	87
0	112469	76	148
0	114006	77	152
0	115550	78	133
0	116805	79	122
0	118059	80	104
0	119617	81	139
0	120977	82	115
0	122658	83	180
0	124104	84	119
0	125192	85	105
0	126616	86	139
0	127853	87	124
0	129349	88	147
0	130935	89	155
0	132645	90	174
0	133839	91	121
0	135341	92	131
0	136680	93	104
0	138277	94	148
0	139843	95	147
0	141211	96	127
0	142797	97	135
0	144334	98	140
0	145773	99	140
0	147249	100	124
0	148338	101	100
0	149642	102	113
0	151018	103	121
0	152617	104	154
0	154068	105	138
0	155372	106	117
0	156669	107	144
0	158074	108	134
0	159524	109	137
0	161082	110	150
0	162537	111	144
0	164205	112	159
0	165616	113	136
0	167203	114	144
0	168710	115	142
0	169988	116	107
0	171251	117	116
0	172617	118	121
0	173850	119	100
0	175251	120	159
0	176918	121	142
0	178408	122	127
0	179713	123	116
0	181102	124	136
0	182861	125	176
0	184508	126	172
0	185767	127	124
0	187312	128	154
0	188887	129	144
0	190344	130	121
0	191702	131	119
0	193081	132	154
0	194218	133	106
0	195652	134	145
0	196965	135	108
0	198508	136	154
0	199940	137	133
0	201279	138	142
0	202649	139	135
0	204426	140	169
0	205941	141	134
0	207815	142	175
0	209705	143	195
0	211209	144	155
0	212695	145	147
0	214665	146	203
0	216190	147	134
0	217693	148	148
0	219130	149	144
0	220671	150	149
0	222119	151	119
0	223793	152	175
0	225207	153	131
0	226530	154	146
0	227773	155	110
0	229048	156	114
0	230610	157	167
0	231732	158	105
0	233674	159	175
0	235256	160	154
0	236766	161	139
0	238096	162	129
0	239673	163	144
0	240840	164	98
0	242291	165	144
0	243867	166	157
0	245352	167	146
0	246928	168	161
0	248859	169	210
0	250677	170	176
0	252092	171	128
0	253637	172	156
0	254938	173	136
0	256450	174	149
0	258104	175	157
0	259458	176	145
0	260861	177	130
0	262337	178	153
0	263722	179	148
0	264939	180	135
0	266335	181	143
0	267672	182	110
0	269185	183	128
0	270371	184	101
0	271956	185	178
0	273538	186	167
0	274924	187	127
0	276307	188	142
0	277688	189	132
0	279031	190	139
0	280124	191	90
0	281518	192	143
0	282794	193	127
0	284357	194	154
0	285677	195	143
0	287249	196	153
0	288563	197	119
0	290003	198	141
0	291165	199	99
0	292503	200	140
0	294059	201	161
0	295616	202	150
0	297291	203	170
0	298845	204	147
0	300179	205	135
0	301708	206	140
0	303280	207	169
0	304564	208	137
0	306147	209	132
0	307540	210	137
0	308945	211	136
0	310264	212	114
0	311596	213	129
0	313067	214	130
0	314305	215	115
0	315927	216	173
0	317416	217	146
0	318904	218	145
0	320246	219	127
0	321945	220	175
0	323413	221	139
0	325143	222	155
0	326397	223	115
0	327932	224	150
0	329190	225	117
0	330613	226	148
0	331930	227	120
0	333146	228	107
0	334795	229	158
0	336030	230	123
0	337627	231	150
0	339002	232	122
0	340889	233	206
0	342417	234	153
0	344077	235	169
0	345573	236	157
0	346947	237	143
0	348278	238	114
0	349743	239	148
0	351370	240	157
0	352937	241	150
0	354261	242	121
0	355632	243	130
0	357194	244	141
0	358548	245	111
0	360174	246	153
0	361631	247	128
0	363010	248	126
0	364496	249	123
0	366122	250	176
0	367708	251	147
0	369059	252	132
0	370303	253	127
0	371767	254	139
0	373020	255	106
0	374397	256	130
0	375914	257	136
0	377168	258	123
0	378535	259	134
0	379778	260	111
0	381311	261	148
0	383159	262	183
0	384795	263	155
0	386217	264	145
0	387496	265	134
0	389029	266	150
0	390674	267	182
0	391900	268	109
0	393025	269	90
0	394520	270	135
0	396351	271	172
0	397533	272	107
0	398564	273	94
0	400133	274	152
0	401371	275	95
0	402873	276	147
0	404328	277	134
0	405988	278	171
0	407451	279	140
0	409038	280	159
0	410354	281	123
0	411326	282	89
0	412401	283	100
0	414100	284	162
0	415664	285	151
0	417036	286	131
0	418518	287	145
0	420122	288	153
0	421571	289	130
0	423408	290	181
0	424807	291	134
0	426043	292	109
0	427277	293	107
0	428797	294	149
0	429957	295	107
0	431574	296	170
0	432941	297	134
0	434514	298	160
0	435762	299	119
0	437142	300	134
0	438387	301	128
0	439554	302	114
0	441163	303	142
0	442339	304	99
0	443913	305	173
0	445624	306	168
0	446558	307	85
0	447878	308	119
0	449469	309	152
0	451003	310	172
0	452234	311	118
0	453389	312	114
0	454866	313	144
0	456105	314	126
0	457708	315	162
0	459413	316	170
0	460956	317	144
0	462527	318	150
0	463915	319	135
0	465200	320	121
0	466827	321	152
0	468115	322	119
0	469452	323	124
0	470952	324	141
0	472445	325	148
0	473957	326	149
0	475055	327	99
0	476373	328	131
0	478158	329	160
0	479573	330	133
0	481199	331	175
0	482729	332	155
0	484266	333	164
0	485956	334	163
0	487272	335	127
0	488779	336	122
0	490423	337	151
0	491813	338	131
0	493549	339	165
0	495219	340	170
0	496760	341	132
0	498361	342	160
0	500022	343	178
0	501226	344	125
0	502862	345	145
0	504208	346	113
0	505376	347	101
0	506659	348	114
0	507929	349	123
0	509566	350	155
0	511381	351	172
0	512645	352	139
0	514103	353	141
0	515615	354	153
0	517313	355	161
0	518726	356	126
0	520264	357	149
0	521671	358	140
0	522982	359	120
0	524291	360	127
0	525831	361	145
0	527132	362	128
0	528477	363	142
0	530136	364	168
0	531448	365	115
0	533039	366	144
0	534520	367	140
0	536100	368	165
0	537764	369	165
0	538971	370	121
0	540406	371	150
0	541802	372	129
0	543092	373	127
0	544655	374	162
0	546153	375	145
0	547696	376	154
0	549290	377	161
0	550911	378	152
0	552468	379	144
0	554101	380	181
0	555344	381	100
0	556599	382	114
0	558017	383	147
0	559463	384	123
0	560911	385	143
0	562216	386	130
0	563686	387	149
0	565007	388	130
0	566626	389	162
0	568036	390	138
0	569676	391	145
0	571165	392	136
0	572647	393	151
0	573855	394	113
0	575395	395	149
0	576787	396	119
0	578613	397	193
0	579946	398	112
0	581601	399	174
0	583164	400	157
0	584739	401	146
0	586497	402	163
0	588037	403	151
0	589608	404	160
0	591057	405	156
0	592604	406	150
0	594291	407	164
0	596049	408	187
0	597699	409	165
0	599023	410	112
0	600055	411	89
0	601563	412	157
0	603394	413	202
0	604903	414	144
0	606587	415	161
0	608062	416	154
0	609367	417	118
0	610995	418	155
0	612175	419	109
0	613548	420	119
0	615201	421	144
0	616987	422	179
0	618679	423	177
0	619902	424	106
0	621339	425	152
0	623091	426	177
0	624463	427	117
0	625893	428	145
0	627094	429	120
0	628393	430	107
0	629799	431	125
0	631564	432	188
0	633030	433	141
0	634797	434	174
0	636531	435	165
0	637908	436	148
0	639590	437	161
0	641229	438	154
0	642897	439	171
0	644673	440	164
0	646164	441	130
0	647695	442	142
0	649843	443	231
0	651489	444	147
0	653032	445	134
0	654655	446	158
0	656190	447	138
0	657696	448	155
0	659042	449	133
0	660473	450	149
0	661907	451	143
0	663255	452	129
0	664474	453	116
0	665806	454	113
0	667385	455	162
0	668755	456	119
0	670179	457	133
0	671400	458	112
0	673125	459	156
0	674665	460	128
0	676155	461	151
0	677446	462	114
0	679090	463	165
0	680789	464	168
0	682268	465	144
0	683795	466	160
0	685409	467	179
0	687119	468	171
0	688852	469	162
0	690539	470	161
0	691800	471	128
0	693132	472	113
0	694443	473	134
0	695767	474	113
0	697219	475	147
0	698732	476	152
0	700368	477	155
0	701610	478	119
0	702953	479	136
0	704176	480	115
0	705753	481	164
0	706680	482	82
0	707918	483	119
0	709230	484	129
0	710742	485	137
0	712066	486	129
0	713476	487	135
0	714854	488	133
0	715938	489	99
0	717336	490	120
0	719140	491	173
0	720542	492	133
0	721538	493	83
0	722763	494	118
0	724041	495	119
0	725810	496	170
0	727115	497	122
0	728846	498	164
0	730295	499	142
0	732046	500	155
0	733625	501	140
0	735192	502	150
0	737050	503	183
0	738430	504	147
0	740033	505	160
0	741550	506	164
0	743302	507	161
0	745032	508	159
0	746865	509	190
0	748658	510	173
0	750183	511	144
0	751579	512	137
0	752990	513	132
0	754417	514	124
0	755851	515	147
0	757364	516	128
0	758732	517	115
0	760081	518	130
0	761509	519	125
0	763051	520	130
0	764414	521	138
0	766181	522	178
0	767637	523	137
0	769019	524	133
0	770590	525	152
0	772061	526	130
0	773727	527	163
0	775072	528	112
0	776717	529	156
0	778233	530	146
0	779829	531	149
0	781729	532	179
0	783021	533	137
0	784608	534	158
0	786525	535	182
0	788247	536	159
0	789889	537	153
0	791530	538	158
0	792994	539	139
0	794544	540	138
0	796093	541	162
0	797636	542	152
0	799012	543	149
0	800593	544	150
0	802121	545	151
0	803643	546	157
0	804987	547	137
0	806108	548	102
0	807748	549	179
0	809132	550	144
0	810366	551	119
0	811661	552	116
0	813161	553	145
0	814341	554	117
0	816032	555	162
0	817227	556	116
0	818413	557	133
0	819811	558	141
0	820977	559	113
0	822382	560	139
0	823718	561	117
0	825092	562	135
0	826533	563	138
0	828052	564	138
0	829605	565	146
0	830948	566	126
0	832393	567	136
0	833902	568	136
0	835367	569	150
0	836800	570	149
0	838198	571	147
0	839635	572	130
0	841338	573	166
0	842688	574	113
0	844336	575	167
0	845813	576	138
0	847425	577	141
0	848750	578	122
0	850290	579	163
0	851871	580	157
0	853160	581	136
0	854853	582	182
0	856077	583	107
0	857760	584	158
0	859264	585	135
0	860641	586	142
0	861807	587	101
0	863436	588	156
0	864711	589	126
0	865997	590	112
0	867009	591	79
0	868741	592	161
0	870203	593	139
0	871482	594	114
0	872754	595	133
0	874597	596	174
0	876268	597	180
0	877949	598	176
0	879579	599	155
0	881026	600	127
0	882496	601	159
0	884091	602	152
0	885537	603	155
0	886642	604	94
0	887832	605	113
0	889449	606	138
0	891138	607	168
0	892400	608	119
0	893655	609	104
0	894919	610	124
0	896201	611	115
0	897751	612	133
0	899038	613	126
0	900314	614	117
0	901775	615	146
0	903584	616	178
0	905010	617	105
0	906597	618	164
0	908320	619	170
0	910013	620	153
0	911589	621	169
0	913142	622	158
0	914648	623	141
0	916172	624	155
0	917398	625	111
0	918877	626	156
0	920389	627	153
0	921848	628	152
0	923253	629	140
0	924466	630	103
0	925568	631	95
0	926635	632	106
0	928107	633	145
0	929384	634	124
0	931010	635	149
0	932434	636	139
0	933779	637	116
0	935493	638	151
0	936881	639	135
0	938149	640	116
0	939410	641	126
0	941152	642	165
0	942495	643	132
0	943685	644	103
0	945071	645	143
0	946731	646	181
0	948463	647	159
0	949992	648	128
0	951617	649	146
0	953043	650	142
0	954584	651	152
0	955889	652	114
0	957218	653	130
0	958688	654	139
0	960352	655	181
0	961889	656	160
0	963272	657	130
0	964565	658	138
0	966186	659	150
0	967694	660	146
0	969205	661	150
0	970416	662	102
0	971813	663	154
0	973232	664	138
0	974810	665	135
0	976855	666	204
0	978068	667	98
0	979621	668	122
0	981057	669	141
0	982118	670	91
0	983502	671	125
0	985193	672	174
0	986621	673	141
0	987781	674	121
0	989194	675	140
0	990300	676	91
0	991771	677	134
0	993303	678	137
0	994710	679	122
0	996317	680	153
0	997839	681	147
0	999448	682	158
0	1000885	683	140
0	1002133	684	115
0	1003431	685	113
0	1004945	686	143
0	1006749	687	205
0	1008265	688	127
0	1009766	689	144
0	1011302	690	156
0	1012908	691	151
0	1014233	692	116
0	1015416	693	118
0	1016719	694	124
0	1018267	695	163
0	1019701	696	147
0	1021284	697	144
0	1022652	698	135
0	1024497	699	188
0	1026139	700	150
0	1027696	701	148
0	1028958	702	89
0	1030571	703	150
0	1032068	704	132
0	1033483	705	122
0	1035133	706	165
0	1036475	707	135
0	1038136	708	162
0	1039699	709	156
0	1041071	710	136
0	1042443	711	143
0	1043571	712	97
0	1044891	713	125
0	1046342	714	142
0	1047905	715	148
0	1049516	716	148
0	1050757	717	108
0	1052221	718	141
0	1053909	719	145
0	1055324	720	121
0	1056773	721	140
0	1058136	722	118
0	1059898	723	153
0	1061545	724	160
0	1063082	725	140
0	1064663	726	146
0	1066061	727	135
0	1067534	728	148
0	1069199	729	174
0	1070558	730	115
0	1071878	731	119
0	1073400	732	151
0	1074484	733	109
0	1075896	734	137
0	1077577	735	162
0	1078936	736	132
0	1080530	737	127
0	1082109	738	138
0	1083285	739	109
0	1084606	740	105
0	1085771	741	98
0	1086871	742	101
0	1088172	743	128
0	1089713	744	140
0	1091257	745	137
0	1092726	746	148
0	1094584	747	179
0	1096116	748	123
0	1097556	749	137
0	1098880	750	134
0	1100498	751	149
0	1101898	752	117
0	1103538	753	155
0	1104952	754	159
0	1106354	755	137
0	1107677	756	116
0	1109475	757	183
0	1110973	758	141
0	1112275	759	111
0	1113733	760	144
0	1114907	761	105
0	1116184	762	118
0	1117537	763	132
0	1118997	764	145
0	1120224	765	106
0	1121817	766	148
0	1123604	767	168
0	1125271	768	172
0	1126834	769	142
0	1128238	770	140
0	1130014	771	167
0	1131557	772	148
0	1133074	773	146
0	1134909	774	182
0	1136560	775	158
0	1138421	776	160
0	1139870	777	130
0	1141279	778	142
0	1142666	779	122
0	1144464	780	164
0	1145541	781	116
0	1146937	782	133
0	1148351	783	127
0	1149660	784	128
0	1151256	785	143
0	1152816	786	139
0	1154123	787	118
0	1155260	788	112
0	1156720	789	141
0	1158587	790	205
0	1160442	791	170
0	1162055	792	168
0	1163531	793	137
0	1165022	794	140
0	1166550	795	145
0	1167772	796	117
0	1169207	797	154
0	1170508	798	120
0	1172092	799	149
0	1173431	800	113
0	1175044	801	152
0	1176641	802	174
0	1178236	803	146
0	1179501	804	118
0	1180726	805	112
0	1181976	806	127
0	1183524	807	129
0	1185079	808	158
0	1186708	809	160
0	1188111	810	131
0	1189791	811	161
0	1191244	812	150
0	1192687	813	138
0	1194279	814	145
0	1195854	815	138
0	1197398	816	169
0	1198912	817	151
0	1200054	818	115
0	1201522	819	149
0	1203198	820	156
0	1204606	821	113
0	1206260	822	157
0	1207832	823	161
0	1209207	824	130
0	1210684	825	148
0	1212381	826	178
0	1213893	827	157
0	1215436	828	138
0	1216755	829	122
0	1218289	830	128
0	1219882	831	162
0	1221283	832	140
0	1222423	833	97
0	1224005	834	157
0	1225376	835	120
0	1226806	836	135
0	1228291	837	148
0	1230026	838	172
0	1231130	839	99
0	1232835	840	151
0	1234414	841	162
0	1235844	842	129
0	1237210	843	133
0	1238670	844	149
0	1240380	845	173
0	1241770	846	121
0	1243530	847	165
0	1245198	848	161
0	1246512	849	119
0	1247619	850	107
0	1249018	851	148
0	1250670	852	169
0	1252085	853	138
0	1253837	854	169
0	1254959	855	79
0	1256353	856	141
0	1257804	857	136
0	1259120	858	129
0	1260506	859	131
0	1261879	860	131
0	1263144	861	124
0	1264747	862	146
0	1265824	863	102
0	1267383	864	156
0	1268905	865	151
0	1269807	866	63
0	1271187	867	137
0	1272546	868	142
0	1274022	869	149
0	1275572	870	148
0	1276878	871	113
0	1278637	872	182
0	1280345	873	173
0	1281981	874	167
0	1283602	875	168
0	1285160	876	157
0	1286398	877	119
0	1288022	878	179
0	1289577	879	158
0	1290955	880	132
0	1292136	881	120
0	1293629	882	136
0	1295052	883	138
0	1296357	884	136
0	1297576	885	120
0	1299130	886	151
0	1300809	887	168
0	1302298	888	140
0	1303895	889	154
0	1305010	890	109
0	1306907	891	178
0	1308135	892	123
0	1309559	893	135
0	1311251	894	169
0	1312945	895	197
0	1314636	896	162
0	1315926	897	117
0	1317324	898	127
0	1318561	899	104
0	1320352	900	157
0	1321784	901	143
0	1323124	902	139
0	1324815	903	164
0	1326644	904	176
0	1328406	905	177
0	1329904	906	155
0	1331265	907	120
0	1332388	908	120
0	1333627	909	112
0	1335116	910	127
0	1336486	911	131
0	1337850	912	125
0	1339251	913	140
0	1340794	914	162
0	1342112	915	117
0	1343580	916	131
0	1345058	917	151
0	1346848	918	201
0	1348203	919	134
0	1349872	920	151
0	1351417	921	156
0	1352876	922	144
0	1354379	923	160
0	1355586	924	106
0	1356881	925	132
0	1358487	926	153
0	1359860	927	144
0	1361063	928	108
0	1362166	929	104
0	1363768	930	152
0	1364960	931	109
0	1366288	932	141
0	1367673	933	132
0	1369139	934	139
0	1370789	935	167
0	1372229	936	129
0	1373890	937	152
0	1375558	938	165
0	1376776	939	111
0	1378132	940	130
0	1379689	941	146
0	1381106	942	132
0	1382410	943	117
0	1383826	944	139
0	1384900	945	101
0	1386126	946	101
0	1387823	947	182
0	1389380	948	148
0	1390970	949	151
0	1392157	950	105
0	1393498	951	132
0	1394729	952	110
0	1396160	953	140
0	1397640	954	167
0	1399228	955	145
0	1400547	956	104
0	1402024	957	148
0	1403247	958	102
0	1404732	959	152
0	1405895	960	111
0	1407249	961	145
0	1408549	962	129
0	1410303	963	173
0	1411762	964	154
0	1413136	965	145
0	1414593	966	142
0	1416138	967	128
0	1417532	968	111
0	1419317	969	176
0	1420946	970	131
0	1422627	971	156
0	1424190	972	160
0	1425590	973	143
0	1427110	974	137
0	1428562	975	137
0	1430248	976	159
0	1431702	977	149
0	1433419	978	154
0	1434726	979	128
0	1436089	980	137
0	1437511	981	127
0	1438873	982	143
0	1440115	983	113
0	1441753	984	155
0	1442900	985	110
0	1444541	986	182
0	1446181	987	171
0	1447539	988	131
0	1449259	989	173
0	1450746	990	133
0	1452119	991	120
0	1453671	992	155
0	1455181	993	143
0	1456873	994	151
0	1458412	995	152
0	1460034	996	163
0	1461795	997	182
0	1463411	998	157
0	1465035	999	175
0	1466517	1000	152
0	1468323	1001	197
0	1469751	1002	145
0	1471532	1003	170
0	1473172	1004	165
0	1474473	1005	124
0	1475991	1006	159
0	1477332	1007	148
0	1478617	1008	120
0	1480263	1009	155
0	1481353	1010	106
0	1482652	1011	126
0	1484445	1012	170
0	1486062	1013	164
0	1487363	1014	118
0	1489233	1015	191
0	1490776	1016	142
0	1492541	1017	180
0	1493928	1018	136
0	1495629	1019	180
0	1497272	1020	147
0	1498413	1021	104
0	1499744	1022	124
0	1501384	1023	159
0	1502682	1024	131
0	1503985	1025	124
0	1505823	1026	171
0	1507344	1027	154
0	1508830	1028	155
0	1510379	1029	172
0	1511919	1030	144
0	1513429	1031	159
0	1515081	1032	169
0	1516533	1033	145
0	1518260	1034	158
0	1520030	1035	167
0	1521172	1036	99
0	1522708	1037	137
0	1524279	1038	166
0	1525857	1039	161
0	1527616	1040	167
0	1528675	1041	90
0	1530078	1042	138
0	1531422	1043	121
0	1533177	1044	178
0	1534807	1045	183
0	1536098	1046	108
0	1537966	1047	179
0	1539317	1048	150
0	1540615	1049	123
0	1542158	1050	141
0	1543914	1051	181
0	1545306	1052	141
0	1546626	1053	121
0	1547942	1054	125
0	1549458	1055	151
0	1550509	1056	90
0	1551970	1057	134
0	1553361	1058	114
0	1554571	1059	115
0	1555894	1060	129
0	1557245	1061	134
0	1558577	1062	117
0	1560135	1063	145
0	1561430	1064	124
0	1562766	1065	137
0	1564183	1066	132
0	1565305	1067	115
0	1566793	1068	133
0	1567906	1069	112
0	1568969	1070	93
0	1570461	1071	149
0	1572102	1072	148
0	1573191	1073	118
0	1575064	1074	164
0	1576467	1075	144
0	1577940	1076	136
0	1579162	1077	111
0	1580506	1078	125
0	1582015	1079	166
0	1583168	1080	103
0	1584516	1081	115
0	1586032	1082	141
0	1587719	1083	174
0	1588777	1084	85
0	1590523	1085	197
0	1591830	1086	114
0	1593311	1087	128
0	1594698	1088	126
0	1596285	1089	156
0	1597508	1090	99
0	1598957	1091	132
0	1600398	1092	126
0	1602080	1093	175
0	1603411	1094	126
0	1604759	1095	123
0	1606192	1096	136
0	1607628	1097	131
0	1609047	1098	112
0	1610934	1099	190
0	1612643	1100	163
0	1613910	1101	124
0	1615361	1102	148
0	1616929	1103	169
0	1618220	1104	118
0	1619724	1105	143
0	1621532	1106	175
0	1622729	1107	100
0	1624566	1108	204
0	1626115	1109	150
0	1627702	1110	131
0	1628949	1111	118
0	1630204	1112	98
0	1631514	1113	109
0	1632849	1114	112
0	1634428	1115	142
0	1636052	1116	181
0	1637448	1117	129
0	1639035	1118	158
0	1640048	1119	86
0	1641220	1120	102
0	1642562	1121	133
0	1643856	1122	137
0	1645192	1123	141
0	1646899	1124	142
0	1648204	1125	124
0	1649498	1126	99
0	1651057	1127	158
0	1652315	1128	131
0	1653783	1129	145
0	1655045	1130	148
0	1656683	1131	151
0	1658256	1132	158
0	1659473	1133	106
0	1661362	1134	206
0	1662768	1135	125
0	1664421	1136	150
0	1666105	1137	181
0	1667553	1138	133
0	1668921	1139	143
0	1670383	1140	132
0	1671857	1141	153
0	1673200	1142	120
0	1674735	1143	138
0	1676145	1144	139
0	1677585	1145	153
0	1679065	1146	143
0	1680389	1147	131
0	1681468	1148	88
0	1683132	1149	165
0	1684366	1150	116
0	1685827	1151	148
0	1687255	1152	145
0	1688813	1153	175
0	1690374	1154	152
0	1691692	1155	125
0	1693304	1156	151
0	1694941	1157	152
0	1696173	1158	117
0	1697673	1159	149
0	1699183	1160	150
0	1700806	1161	146
0	1702321	1162	150
0	1703603	1163	129
0	1705016	1164	142
0	1706254	1165	99
0	1707854	1166	153
0	1709491	1167	134
0	1710757	1168	127
0	1712293	1169	143
0	1713949	1170	162
0	1715159	1171	117
0	1716758	1172	160
0	1718287	1173	146
0	1719889	1174	145
0	1721446	1175	150
0	1722944	1176	163
0	1724674	1177	171
0	1726144	1178	137
0	1727501	1179	126
0	1729043	1180	134
0	1730483	1181	127
0	1731949	1182	149
0	1733113	1183	117
0	1734566	1184	152
0	1736024	1185	135
0	1737244	1186	125
0	1738433	1187	104
0	1739874	1188	120
0	1741142	1189	119
0	1742792	1190	158
0	1744126	1191	133
0	1745552	1192	139
0	1746941	1193	132
0	1748604	1194	156
0	1749810	1195	123
0	1751149	1196	126
0	1752622	1197	130
0	1754238	1198	165
0	1755545	1199	118
0	1757025	1200	152
0	1758635	1201	149
0	1760098	1202	136
0	1761755	1203	156
0	1763055	1204	121
0	1764568	1205	168
0	1766423	1206	170
0	1767827	1207	143
0	1769385	1208	135
0	1770654	1209	118
0	1772178	1210	156
0	1773805	1211	138
0	1775053	1212	133
0	1776570	1213	148
0	1777782	1214	103
0	1779199	1215	134
0	1780552	1216	128
0	1781923	1217	116
0	1783243	1218	135
0	1784594	1219	122
0	1786041	1220	145
0	1787643	1221	155
0	1789035	1222	133
0	1790593	1223	155
0	1791728	1224	110
0	1793265	1225	156
0	1794986	1226	154
0	1796647	1227	150
0	1798172	1228	148
0	1799471	1229	122
0	1800633	1230	110
0	1802214	1231	160
0	1803777	1232	166
0	1805152	1233	122
0	1806726	1234	149
0	1808248	1235	121
0	1809558	1236	109
0	1811161	1237	140
0	1812557	1238	147
0	1814126	1239	158
0	1815662	1240	148
0	1817067	1241	144
0	1818718	1242	158
0	1820263	1243	166
0	1822001	1244	171
0	1823766	1245	174
0	1825344	1246	135
0	1826854	1247	149
0	1828608	1248	173
0	1830181	1249	150
0	1831946	1250	155
0	1833479	1251	142
0	1835110	1252	158
0	1836608	1253	159
0	1838181	1254	148
0	1839708	1255	160
0	1841020	1256	137
0	1842570	1257	151
0	1844194	1258	167
0	1845574	1259	129
0	1847171	1260	143
0	1848915	1261	175
0	1850392	1262	118
0	1852083	1263	162
0	1853301	1264	97
0	1854632	1265	120
0	1855911	1266	104
0	1857299	1267	139
0	1858968	1268	146
0	1860291	1269	116
0	1861752	1270	131
0	1863229	1271	144
0	1864723	1272	139
0	1866079	1273	121
0	1867598	1274	132
0	1869023	1275	132
0	1870713	1276	173
0	1872290	1277	154
0	1874237	1278	186
0	1875608	1279	128
0	1877151	1280	157
0	1878304	1281	114
0	1879718	1282	143
0	1880988	1283	107
0	1882491	1284	132
0	1883992	1285	176
0	1885383	1286	128
0	1887142	1287	152
0	1888756	1288	161
0	1890197	1289	134
0	1891541	1290	128
0	1893065	1291	145
0	1894612	1292	154
0	1896117	1293	146
0	1897445	1294	115
0	1899009	1295	169
0	1900548	1296	142
0	1902054	1297	143
0	1903571	1298	144
0	1905082	1299	154
0	1906436	1300	106
0	1907468	1301	89
0	1908781	1302	108
0	1910439	1303	167
0	1911744	1304	116
0	1913285	1305	150
0	1914923	1306	159
0	1916507	1307	151
0	1918030	1308	134
0	1919621	1309	170
0	1920919	1310	130
0	1922215	1311	129
0	1923599	1312	121
0	1924710	1313	106
0	1926262	1314	181
0	1927857	1315	156
0	1929424	1316	162
0	1930658	1317	113
0	1932093	1318	134
0	1933313	1319	133
0	1934941	1320	156
0	1936328	1321	136
0	1937969	1322	170
0	1939490	1323	148
0	1940770	1324	101
0	1942504	1325	195
0	1944155	1326	164
0	1945450	1327	124
0	1946842	1328	121
0	1948182	1329	125
0	1949866	1330	160
0	1951952	1331	207
0	1953992	1332	199
0	1955607	1333	152
0	1957244	1334	168
0	1958820	1335	169
0	1960472	1336	163
0	1962068	1337	147
0	1963690	1338	163
0	1965091	1339	144
0	1966756	1340	169
0	1968826	1341	221
0	1970461	1342	162
0	1971976	1343	140
0	1973742	1344	153
0	1975247	1345	152
0	1976581	1346	119
0	1977961	1347	133
0	1979621	1348	137
0	1980884	1349	132
0	1982174	1350	136
0	1983138	1351	93
0	1984639	1352	152
0	1985800	1353	88
0	1987153	1354	130
0	1988836	1355	152
0	1990559	1356	178
0	1991803	1357	105
0	1993464	1358	174
0	1995066	1359	153
0	1997163	1360	211
0	1998585	1361	131
0	1999813	1362	119
0	2001600	1363	182
0	2003269	1364	172
0	2004850	1365	162
0	2006456	1366	141
0	2007768	1367	115
0	2009231	1368	152
0	2010588	1369	118
0	2012120	1370	144
0	2013560	1371	147
0	2015270	1372	157
0	2016996	1373	163
0	2018303	1374	112
0	2019989	1375	159
0	2021391	1376	145
0	2022833	1377	127
0	2024593	1378	173
0	2025839	1379	111
0	2027230	1380	137
0	2028345	1381	90
0	2029819	1382	131
0	2031441	1383	143
0	2032851	1384	143
0	2034467	1385	145
0	2035971	1386	135
0	2037557	1387	171
0	2039062	1388	150
0	2040427	1389	128
0	2041846	1390	131
0	2043014	1391	111
0	2044160	1392	95
0	2045697	1393	144
0	2047046	1394	128
0	2048484	1395	135
0	2049803	1396	114
0	2051288	1397	156
0	2052514	1398	119
0	2053777	1399	130
0	2055583	1400	178
0	2057189	1401	171
0	2058580	1402	128
0	2059992	1403	125
0	2061275	1404	128
0	2062305	1405	93
0	2063726	1406	134
0	2064916	1407	115
0	2066197	1408	106
0	2067569	1409	151
0	2068929	1410	112
0	2069988	1411	118
0	2071506	1412	143
0	2072703	1413	112
0	2074164	1414	136
0	2075676	1415	141
0	2077345	1416	164
0	2079103	1417	159
0	2080333	1418	115
0	2081871	1419	163
0	2083561	1420	170
0	2084969	1421	139
0	2086033	1422	91
0	2087545	1423	153
0	2089056	1424	138
0	2090466	1425	143
0	2091894	1426	135
0	2093441	1427	156
0	2094699	1428	125
0	2096293	1429	153
0	2097289	1430	100
0	2098733	1431	145
0	2099982	1432	116
0	2101614	1433	149
0	2103444	1434	175
0	2104851	1435	144
0	2106045	1436	113
0	2107279	1437	131
0	2108691	1438	145
0	2110214	1439	146
0	2111490	1440	118
0	2112828	1441	121
0	2114272	1442	137
0	2115507	1443	118
0	2116964	1444	136
0	2118374	1445	143
0	2119823	1446	138
0	2121623	1447	177
0	2122967	1448	119
0	2124346	1449	140
0	2125999	1450	149
0	2127127	1451	105
0	2128521	1452	139
0	2130001	1453	149
0	2131691	1454	163
0	2133366	1455	166
0	2134921	1456	136
0	2135919	1457	87
0	2137291	1458	143
0	2139112	1459	164
0	2140686	1460	154
0	2142283	1461	148
0	2143940	1462	172
0	2145359	1463	142
0	2147036	1464	166
0	2148257	1465	114
0	2149695	1466	151
0	2151027	1467	113
0	2152826	1468	170
0	2154336	1469	139
0	2155817	1470	143
0	2157363	1471	167
0	2158553	1472	111
0	2159999	1473	143
0	2161233	1474	131
0	2162477	1475	121
0	2164108	1476	148
0	2165456	1477	127
0	2166842	1478	131
0	2167954	1479	101
0	2169315	1480	127
0	2170599	1481	125
0	2171903	1482	121
0	2173341	1483	135
0	2174899	1484	155
0	2176362	1485	134
0	2178099	1486	182
0	2179773	1487	145
0	2181144	1488	134
0	2182599	1489	146
0	2183849	1490	98
0	2185385	1491	165
0	2186601	1492	103
0	2188164	1493	156
0	2189789	1494	152
0	2191082	1495	122
0	2192454	1496	151
0	2193941	1497	142
0	2195421	1498	147
0	2197148	1499	170
0	2198789	1500	149
0	2200212	1501	130
0	2201844	1502	161
0	2203069	1503	108
0	2204379	1504	135
0	2205805	1505	139
0	2207399	1506	153
0	2208935	1507	151
0	2210123	1508	111
0	2211623	1509	139
0	2213009	1510	136
0	2214734	1511	172
0	2215913	1512	100
0	2217477	1513	149
0	2218639	1514	109
0	2220009	1515	121
0	2221522	1516	164
0	2222633	1517	94
0	2224089	1518	145
0	2225452	1519	126
0	2226996	1520	152
0	2228254	1521	99
0	2229654	1522	147
0	2230975	1523	114
0	2232288	1524	118
0	2233849	1525	154
0	2235096	1526	102
0	2236635	1527	144
0	2238093	1528	141
0	2239303	1529	113
0	2240705	1530	124
0	2241967	1531	123
0	2243273	1532	123
0	2244521	1533	125
0	2245962	1534	142
0	2247535	1535	164
0	2248838	1536	120
0	2250535	1537	148
0	2252244	1538	164
0	2253631	1539	154
0	2254864	1540	115
0	2256418	1541	171
0	2257728	1542	131
0	2259010	1543	115
0	2260848	1544	197
0	2262210	1545	131
0	2263745	1546	156
0	2265386	1547	140
0	2266886	1548	133
0	2268213	1549	112
0	2269363	1550	112
0	2271014	1551	158
0	2272687	1552	158
0	2273899	1553	103
0	2275670	1554	168
0	2277134	1555	135
0	2278604	1556	151
0	2279740	1557	97
0	2281349	1558	156
0	2282735	1559	123
0	2284252	1560	135
0	2285463	1561	114
0	2286775	1562	133
0	2288274	1563	144
0	2289829	1564	144
0	2291276	1565	134
0	2292802	1566	135
0	2294015	1567	120
0	2295326	1568	118
0	2296921	1569	152
0	2298578	1570	153
0	2299870	1571	113
0	2301391	1572	172
0	2303102	1573	152
0	2304458	1574	113
0	2305894	1575	121
0	2307573	1576	168
0	2309095	1577	139
0	2310172	1578	98
0	2311805	1579	168
0	2313231	1580	136
0	2314488	1581	120
0	2315902	1582	131
0	2317343	1583	136
0	2318907	1584	145
0	2320511	1585	143
0	2321970	1586	132
0	2323635	1587	166
0	2325056	1588	140
0	2326551	1589	140
0	2328016	1590	131
0	2329513	1591	142
0	2331303	1592	187
0	2332878	1593	168
0	2334348	1594	135
0	2335710	1595	127
0	2336933	1596	106
0	2338093	1597	95
0	2339335	1598	121
0	2340944	1599	152
0	2342311	1600	133
0	2343543	1601	133
0	2344928	1602	134
0	2346375	1603	140
0	2347894	1604	148
0	2349115	1605	114
0	2350362	1606	122
0	2351557	1607	98
0	2352659	1608	89
0	2353984	1609	124
0	2355693	1610	173
0	2357058	1611	132
0	2358562	1612	155
0	2360031	1613	122
0	2361396	1614	128
0	2363066	1615	155