version 3
run SimulationTime-121-20240108-13:20:49-14068
attr configname SimulationTime
attr datetime 20240108-13:20:49
attr datetimef 20240108-132049
attr experiment SimulationTime
attr inifile omnetpp.ini
attr iterationvars ""
attr iterationvarsd ""
attr iterationvarsf ""
attr measurement ""
attr network System
attr processid 14068
attr repetition 121
attr replication #121
attr resultdir results
attr runnumber 121
attr seedset 121
config **.cpu.rate 1000
config **.hd.rateProcessing 250
config **.webServer.web_server_rate 100
config **.p1 0.35
config **.p2 0.40
config network System
config num-rngs 4
config **.cpu.rng-0 0
config **.cpu.rng-1 1
config **.hd.rng-0 2
config **.webServer.rng-0 3
config repeat 500
config seed-set 121
config sim-time-limit 10000s
config **.client.numClients 40

vector 0 System.server.cpu requestCounterStat:vector ETV
attr recordingmode vector
attr source requestCounter
vector 1 System.server.hd utilizationHdStat:vector ETV
attr recordingmode vector
attr source utilizationHd
vector 2 System.server.cpu utilizationCpuStat:vector ETV
attr recordingmode vector
attr source utilizationCpu
vector 3 System.webServer utilizationWsStat:vector ETV
attr recordingmode vector
attr source utilizationWs
0	1806	1	187
0	3420	2	165
0	4833	3	138
0	6223	4	151
0	7664	5	122
0	9091	6	138
0	10356	7	122
0	11727	8	118
0	13210	9	152
0	14684	10	136
0	15953	11	112
0	17224	12	126
0	18512	13	125
0	19808	14	109
0	21354	15	161
0	22840	16	141
0	24246	17	143
0	25813	18	158
0	26917	19	105
0	28623	20	178
0	29904	21	120
0	31656	22	161
0	33208	23	133
0	34803	24	144
0	36142	25	140
0	37461	26	104
0	38867	27	149
0	40647	28	181
0	42216	29	136
0	43684	30	172
0	44888	31	129
0	46766	32	187
0	48040	33	107
0	49497	34	134
0	50800	35	136
0	52317	36	140
0	53508	37	110
0	54714	38	115
0	55937	39	114
0	57586	40	177
0	59020	41	145
0	60522	42	147
0	61988	43	151
0	63630	44	163
0	65168	45	153
0	66668	46	141
0	68064	47	131
0	69818	48	167
0	70987	49	110
0	72265	50	122
0	73901	51	169
0	75260	52	136
0	76430	53	111
0	78042	54	157
0	79247	55	116
0	80406	56	122
0	81973	57	154
0	83435	58	137
0	84838	59	136
0	86016	60	102
0	87474	61	139
0	88989	62	174
0	90355	63	137
0	92051	64	173
0	93605	65	157
0	95424	66	156
0	96573	67	92
0	98122	68	168
0	99932	69	169
0	101721	70	159
0	102839	71	95
0	104708	72	204
0	106424	73	175
0	108009	74	162
0	109524	75	122
0	110821	76	108
0	112563	77	195
0	114308	78	160
0	115818	79	167
0	117039	80	115
0	118169	81	115
0	119818	82	158
0	121342	83	143
0	122627	84	100
0	124030	85	124
0	125596	86	153
0	127414	87	181
0	128705	88	116
0	130005	89	117
0	131445	90	152
0	132912	91	138
0	134152	92	123
0	135809	93	158
0	137440	94	150
0	138750	95	119
0	140178	96	149
0	141654	97	129
0	142839	98	112
0	144522	99	166
0	145975	100	147
0	147496	101	148
0	148979	102	126
0	150556	103	158
0	152089	104	164
0	153615	105	145
0	154978	106	138
0	156491	107	150
0	157716	108	122
0	159277	109	158
0	160487	110	114
0	161758	111	124
0	163321	112	150
0	164780	113	142
0	166060	114	109
0	167399	115	124
0	168996	116	162
0	170715	117	156
0	172173	118	155
0	173636	119	140
0	175298	120	148
0	176598	121	123
0	177706	122	109
0	179190	123	133
0	180439	124	108
0	181750	125	124
0	183175	126	138
0	184606	127	150
0	186131	128	130
0	187790	129	172
0	189142	130	140
0	190767	131	148
0	192273	132	145
0	193935	133	147
0	195412	134	148
0	196668	135	115
0	198271	136	150
0	199881	137	143
0	201140	138	118
0	202466	139	135
0	203656	140	98
0	205169	141	148
0	206958	142	168
0	208071	143	120
0	209320	144	110
0	211055	145	172
0	212492	146	140
0	214235	147	152
0	215388	148	110
0	216684	149	117
0	217942	150	122
0	219228	151	119
0	220691	152	138
0	222173	153	151
0	223579	154	139
0	225148	155	144
0	226774	156	173
0	228128	157	149
0	229708	158	157
0	231303	159	162
0	232709	160	142
0	234445	161	175
0	236241	162	175
0	237785	163	155
0	239253	164	135
0	240633	165	121
0	242350	166	172
0	243697	167	118
0	245262	168	160
0	246555	169	126
0	247970	170	139
0	249471	171	166
0	250884	172	126
0	252253	173	116
0	253536	174	122
0	254855	175	130
0	256288	176	128
0	257932	177	163
0	259343	178	124
0	260781	179	143
0	262283	180	146
0	263847	181	151
0	265374	182	146
0	266943	183	160
0	268599	184	153
0	269801	185	97
0	271578	186	202
0	272940	187	129
0	274506	188	137
0	275852	189	133
0	277404	190	156
0	278939	191	140
0	280099	192	103
0	281505	193	127
0	283109	194	137
0	285010	195	184
0	286787	196	184
0	288410	197	150
0	289950	198	155
0	291599	199	172
0	293309	200	160
0	294820	201	144
0	296057	202	120
0	297433	203	129
0	298860	204	136
0	300322	205	149
0	301672	206	137
0	302898	207	109
0	304163	208	110
0	305691	209	149
0	307182	210	133
0	308677	211	134
0	310363	212	151
0	311696	213	128
0	313175	214	142
0	314688	215	164
0	315907	216	114
0	317435	217	155
0	318737	218	129
0	320306	219	150
0	321780	220	128
0	323242	221	143
0	324224	222	81
0	325810	223	161
0	327351	224	144
0	328609	225	121
0	330627	226	209
0	331964	227	136
0	333134	228	107
0	334484	229	117
0	336280	230	176
0	337534	231	125
0	339144	232	159
0	340604	233	139
0	342038	234	149
0	343371	235	138
0	344786	236	126
0	346183	237	134
0	347777	238	171
0	349220	239	144
0	350564	240	130
0	351977	241	136
0	353496	242	152
0	354889	243	134
0	356296	244	124
0	357922	245	163
0	359633	246	180
0	360815	247	113
0	362418	248	150
0	364074	249	173
0	365638	250	122
0	367101	251	144
0	368684	252	146
0	370195	253	144
0	371712	254	154
0	373038	255	123
0	374641	256	152
0	376348	257	182
0	377800	258	145
0	378873	259	112
0	380105	260	116
0	381593	261	157
0	383138	262	156
0	384491	263	130
0	385894	264	130
0	387881	265	194
0	389790	266	190
0	391042	267	121
0	392226	268	109
0	393566	269	133
0	394754	270	112
0	396246	271	115
0	397665	272	116
0	399164	273	144
0	400569	274	132
0	401905	275	127
0	403336	276	144
0	404802	277	151
0	406315	278	156
0	407720	279	142
0	409369	280	189
0	410675	281	127
0	412065	282	131
0	413298	283	102
0	414620	284	121
0	416202	285	157
0	417622	286	141
0	419200	287	131
0	420627	288	132
0	422068	289	130
0	423812	290	168
0	425506	291	173
0	427144	292	171
0	428675	293	136
0	430299	294	173
0	431796	295	140
0	433407	296	158
0	434735	297	117
0	436487	298	179
0	437866	299	128
0	439142	300	120
0	440145	301	104
0	441875	302	139
0	443426	303	152
0	444603	304	112
0	445953	305	107
0	447169	306	105
0	449016	307	178
0	450575	308	140
0	451900	309	130
0	453099	310	109
0	454570	311	140
0	456180	312	163
0	457729	313	146
0	458808	314	106
0	460023	315	110
0	461981	316	195
0	463839	317	203
0	465357	318	135
0	466532	319	114
0	467847	320	129
0	469490	321	166
0	470877	322	122
0	472499	323	165
0	473934	324	144
0	475355	325	132
0	476516	326	96
0	477602	327	99
0	479161	328	126
0	480583	329	115
0	482390	330	177
0	483835	331	136
0	485508	332	174
0	487149	333	142
0	488718	334	156
0	489955	335	104
0	491376	336	138
0	492764	337	125
0	494314	338	145
0	495598	339	117
0	496786	340	92
0	498558	341	181
0	499748	342	103
0	500940	343	121
0	502448	344	149
0	504410	345	201
0	505977	346	164
0	507491	347	163
0	508936	348	122
0	510524	349	147
0	511768	350	104
0	513138	351	143
0	514762	352	153
0	515984	353	117
0	517695	354	176
0	519028	355	124
0	520558	356	147
0	521755	357	106
0	523322	358	158
0	524465	359	104
0	526124	360	139
0	527582	361	133
0	529109	362	162
0	530391	363	131
0	532067	364	149
0	533317	365	119
0	534495	366	109
0	535657	367	105
0	537255	368	151
0	539035	369	181
0	540575	370	158
0	542142	371	148
0	543919	372	168
0	545151	373	121
0	546624	374	148
0	547826	375	115
0	549386	376	125
0	550589	377	114
0	552051	378	143
0	553462	379	140
0	555336	380	192
0	556933	381	132
0	558406	382	148
0	559389	383	102
0	560583	384	103
0	562270	385	178
0	563397	386	104
0	565260	387	168
0	566687	388	136
0	568246	389	148
0	569996	390	166
0	571205	391	110
0	572719	392	141
0	574493	393	169
0	575729	394	103
0	576790	395	84
0	578403	396	170
0	579831	397	139
0	581099	398	123
0	582708	399	146
0	584110	400	126
0	585597	401	152
0	586937	402	115
0	588866	403	190
0	590274	404	143
0	591936	405	161
0	593522	406	133
0	595121	407	146
0	596556	408	142
0	598135	409	156
0	599488	410	137
0	600878	411	135
0	602464	412	175
0	603870	413	151
0	605364	414	131
0	606910	415	141
0	608471	416	170
0	610059	417	149
0	611787	418	163
0	613145	419	119
0	614895	420	160
0	616280	421	108
0	617464	422	113
0	618670	423	125
0	620415	424	172
0	621932	425	162
0	623396	426	129
0	624633	427	116
0	626085	428	151
0	627445	429	147
0	628800	430	135
0	630409	431	146
0	632147	432	163
0	633982	433	178
0	635671	434	176
0	637208	435	140
0	638823	436	184
0	640180	437	144
0	641640	438	125
0	643089	439	142
0	644380	440	117
0	645691	441	144
0	646995	442	135
0	648383	443	141
0	649582	444	114
0	650823	445	104
0	652356	446	128
0	653826	447	115
0	655060	448	117
0	656331	449	128
0	657714	450	131
0	659291	451	174
0	660830	452	150
0	662751	453	176
0	664094	454	138
0	665367	455	116
0	666469	456	103
0	667766	457	128
0	669035	458	108
0	670530	459	158
0	672474	460	188
0	673749	461	118
0	675253	462	157
0	677048	463	168
0	678295	464	108
0	679986	465	156
0	681648	466	173
0	683443	467	184
0	684790	468	120
0	685906	469	101
0	687349	470	131
0	688883	471	145
0	690415	472	151
0	692034	473	138
0	693513	474	136
0	695092	475	146
0	696395	476	128
0	697565	477	109
0	699053	478	147
0	700239	479	117
0	701827	480	152
0	703319	481	153
0	704556	482	108
0	706117	483	148
0	707629	484	139
0	709350	485	184
0	710948	486	153
0	712383	487	146
0	714089	488	149
0	715399	489	127
0	716846	490	143
0	718220	491	135
0	719657	492	144
0	720881	493	117
0	722481	494	165
0	723866	495	136
0	725122	496	121
0	726625	497	138
0	728202	498	140
0	729798	499	165
0	731643	500	183
0	733063	501	127
0	734726	502	176
0	735927	503	118
0	737439	504	151
0	738554	505	98
0	739883	506	120
0	741309	507	131
0	742844	508	166
0	744476	509	161
0	746273	510	173
0	747800	511	158
0	748989	512	98
0	750708	513	178
0	752053	514	136
0	753555	515	143
0	755022	516	142
0	756599	517	136
0	758288	518	156
0	759458	519	111
0	760777	520	97
0	762092	521	132
0	763304	522	103
0	764919	523	156
0	766270	524	132
0	767906	525	173
0	769040	526	101
0	770283	527	132
0	771701	528	135
0	772987	529	139
0	774470	530	141
0	775673	531	120
0	777169	532	145
0	778713	533	141
0	780463	534	185
0	782009	535	147
0	783417	536	149
0	784728	537	138
0	786144	538	129
0	787665	539	150
0	789392	540	175
0	790660	541	117
0	792168	542	141
0	793716	543	137
0	795463	544	194
0	796606	545	114
0	797948	546	111
0	799468	547	137
0	800880	548	149
0	802073	549	104
0	803662	550	163
0	804850	551	101
0	806096	552	121
0	807680	553	191
0	809151	554	140
0	810556	555	140
0	811944	556	123
0	813450	557	159
0	814766	558	97
0	816103	559	132
0	817417	560	124
0	818568	561	122
0	819740	562	95
0	821181	563	132
0	822752	564	154
0	824270	565	139
0	825758	566	137
0	827008	567	125
0	828803	568	190
0	830393	569	155
0	831438	570	101
0	833017	571	150
0	834291	572	115
0	835587	573	129
0	836943	574	137
0	838412	575	148
0	839702	576	105
0	841428	577	165
0	843026	578	147
0	844311	579	128
0	845722	580	107
0	847145	581	124
0	848433	582	105
0	849901	583	161
0	851561	584	181
0	852918	585	140
0	854496	586	149
0	856014	587	145
0	857450	588	149
0	858557	589	102
0	859980	590	117
0	861539	591	142
0	863143	592	153
0	864617	593	155
0	865850	594	116
0	867516	595	183
0	868777	596	120
0	870345	597	153
0	871534	598	110
0	873063	599	150
0	874179	600	104
0	875489	601	125
0	877191	602	179
0	878449	603	117
0	879864	604	138
0	880999	605	86
0	882803	606	173
0	884331	607	151
0	885395	608	91
0	886883	609	153
0	888238	610	133
0	889971	611	164
0	891305	612	141
0	892830	613	154
0	894258	614	123
0	895808	615	133
0	897102	616	117
0	898764	617	153
0	900492	618	157
0	902007	619	140
0	903695	620	170
0	905345	621	153
0	906968	622	148
0	908578	623	143
0	910137	624	166
0	911562	625	130
0	912519	626	82
0	913884	627	132
0	914947	628	102
0	916713	629	167
0	918136	630	135
0	919400	631	107
0	920832	632	113
0	922009	633	124
0	923681	634	157
0	925543	635	179
0	927449	636	187
0	928829	637	133
0	930293	638	151
0	931854	639	126
0	933327	640	135
0	934534	641	118
0	936009	642	130
0	937323	643	125
0	938915	644	155
0	940529	645	131
0	942194	646	164
0	943491	647	128
0	944618	648	106
0	945957	649	126
0	947329	650	126
0	949072	651	192
0	950437	652	122
0	952050	653	134
0	953613	654	150
0	955135	655	155
0	956920	656	192
0	958673	657	176
0	960252	658	156
0	961566	659	105
0	962571	660	87
0	963850	661	138
0	964951	662	106
0	966475	663	149
0	967706	664	106
0	969353	665	152
0	970667	666	127
0	972065	667	121
0	973595	668	163
0	975042	669	156
0	976579	670	157
0	978189	671	153
0	979752	672	138
0	981525	673	164
0	983038	674	136
0	984627	675	150
0	985919	676	115
0	987636	677	180
0	988962	678	131
0	990430	679	139
0	991891	680	133
0	993525	681	159
0	994921	682	137
0	996813	683	183
0	998760	684	178
0	1000409	685	150
0	1002057	686	161
0	1003263	687	121
0	1004677	688	147
0	1006001	689	109
0	1007380	690	125
0	1008706	691	133
0	1010251	692	136
0	1011727	693	147
0	1013138	694	128
0	1014591	695	140
0	1016397	696	165
0	1017997	697	163
0	1019556	698	150
0	1021147	699	150
0	1022553	700	126
0	1024234	701	176
0	1025806	702	145
0	1027364	703	159
0	1028763	704	122
0	1030363	705	123
0	1031891	706	133
0	1033462	707	150
0	1035055	708	154
0	1036270	709	100
0	1037519	710	121
0	1038913	711	131
0	1040363	712	147
0	1041752	713	132
0	1043072	714	125
0	1044421	715	116
0	1046131	716	179
0	1047614	717	132
0	1049146	718	145
0	1050835	719	164
0	1052433	720	148
0	1054014	721	144
0	1055611	722	154
0	1057448	723	202
0	1058998	724	151
0	1060406	725	143
0	1061501	726	104
0	1063314	727	186
0	1064941	728	156
0	1066208	729	110
0	1067915	730	141
0	1069625	731	171
0	1071255	732	151
0	1073227	733	189
0	1074716	734	140
0	1076154	735	115
0	1077560	736	131
0	1078998	737	123
0	1080858	738	193
0	1082518	739	167
0	1083508	740	100
0	1085180	741	177
0	1086556	742	123
0	1088394	743	173
0	1089887	744	126
0	1091641	745	185
0	1093282	746	176
0	1094694	747	129
0	1096399	748	162
0	1097789	749	125
0	1099257	750	156
0	1100494	751	108
0	1102068	752	147
0	1103396	753	121
0	1104741	754	120
0	1106049	755	121
0	1107877	756	169
0	1109358	757	136
0	1110710	758	125
0	1112340	759	155
0	1113704	760	120
0	1114918	761	117
0	1116530	762	181
0	1118124	763	153
0	1119686	764	139
0	1121275	765	164
0	1122616	766	134
0	1124483	767	198
0	1126140	768	154
0	1128001	769	156
0	1129524	770	149
0	1130903	771	130
0	1132159	772	117
0	1133667	773	139
0	1134987	774	111
0	1136899	775	195
0	1138150	776	116
0	1139511	777	128
0	1140811	778	123
0	1142215	779	151
0	1143981	780	160
0	1145430	781	136
0	1146868	782	133
0	1148022	783	101
0	1149517	784	136
0	1150932	785	136
0	1152234	786	121
0	1153774	787	159
0	1155462	788	163
0	1156907	789	132
0	1158486	790	133
0	1159835	791	144
0	1161136	792	108
0	1162548	793	123
0	1163939	794	128
0	1165363	795	145
0	1166807	796	135
0	1168016	797	94
0	1169651	798	146
0	1170927	799	125
0	1172303	800	146
0	1173890	801	144
0	1175018	802	93
0	1176567	803	172
0	1178112	804	158
0	1179493	805	142
0	1181151	806	155
0	1182683	807	153
0	1184022	808	126
0	1185498	809	145
0	1187006	810	150
0	1188824	811	173
0	1190198	812	119
0	1191618	813	117
0	1193348	814	165
0	1194538	815	113
0	1196244	816	163
0	1197793	817	152
0	1199371	818	147
0	1200896	819	140
0	1202262	820	130
0	1203803	821	150
0	1205077	822	145
0	1206658	823	166
0	1207786	824	103
0	1208907	825	108
0	1210474	826	154
0	1211784	827	117
0	1213454	828	173
0	1214926	829	145
0	1216262	830	136
0	1217965	831	174
0	1219242	832	106
0	1220423	833	102
0	1221874	834	130
0	1223338	835	143
0	1225175	836	192
0	1226681	837	163
0	1227720	838	110
0	1229477	839	170
0	1231057	840	152
0	1232357	841	121
0	1233914	842	142
0	1235082	843	109
0	1236462	844	123
0	1238014	845	165
0	1239524	846	161
0	1240650	847	101
0	1242222	848	127
0	1243542	849	123
0	1244908	850	126
0	1246578	851	161
0	1247911	852	108
0	1249288	853	142
0	1250686	854	115
0	1252150	855	141
0	1253535	856	128
0	1254855	857	121
0	1256330	858	138
0	1257999	859	162
0	1259695	860	170
0	1261230	861	142
0	1262893	862	178
0	1264477	863	149
0	1265981	864	153
0	1267418	865	156
0	1268765	866	134
0	1270434	867	172
0	1271725	868	136
0	1272878	869	102
0	1274258	870	132
0	1275788	871	129
0	1277069	872	118
0	1278170	873	106
0	1279734	874	163
0	1281250	875	135
0	1282797	876	148
0	1284327	877	159
0	1286281	878	181
0	1287536	879	132
0	1288540	880	102
0	1290045	881	142
0	1291716	882	170
0	1293167	883	154
0	1294794	884	186
0	1296285	885	138
0	1297735	886	135
0	1299059	887	117
0	1300669	888	155
0	1301998	889	128
0	1303577	890	153
0	1305229	891	163
0	1306639	892	125
0	1307886	893	142
0	1309425	894	142
0	1310664	895	122
0	1311980	896	139
0	1313382	897	133
0	1314736	898	137
0	1316441	899	160
0	1317773	900	130
0	1319152	901	124
0	1320835	902	156
0	1322289	903	139
0	1324123	904	183
0	1325418	905	120
0	1326956	906	137
0	1328571	907	154
0	1330012	908	144
0	1331386	909	127
0	1332681	910	107
0	1334371	911	153
0	1335904	912	142
0	1337477	913	150
0	1338787	914	117
0	1340752	915	186
0	1341945	916	118
0	1343571	917	173
0	1345216	918	160
0	1346762	919	141
0	1348091	920	127
0	1349315	921	119
0	1350606	922	134
0	1352124	923	149
0	1353513	924	126
0	1354854	925	152
0	1356456	926	141
0	1357799	927	116
0	1359203	928	143
0	1360641	929	125
0	1362296	930	169
0	1363834	931	135
0	1365457	932	166
0	1366940	933	146
0	1368604	934	155
0	1370113	935	140
0	1371555	936	145
0	1373251	937	173
0	1374715	938	133
0	1376339	939	149
0	1377644	940	133
0	1379180	941	157
0	1380877	942	154
0	1382315	943	135
0	1383869	944	127
0	1384993	945	99
0	1386289	946	125
0	1387651	947	111
0	1389223	948	147
0	1390682	949	138
0	1392267	950	181
0	1393901	951	157
0	1395308	952	130
0	1396725	953	132
0	1398131	954	119
0	1399413	955	123
0	1400993	956	159
0	1402298	957	126
0	1403660	958	139
0	1405392	959	159
0	1406888	960	152
0	1408167	961	112
0	1409380	962	112
0	1410876	963	145
0	1412409	964	140
0	1413728	965	122
0	1415626	966	195
0	1417270	967	145
0	1418650	968	127
0	1420339	969	150
0	1421914	970	153
0	1423257	971	142
0	1424531	972	133
0	1425792	973	102
0	1427264	974	125
0	1429059	975	158
0	1430431	976	149
0	1431892	977	136
0	1433643	978	154
0	1435104	979	132
0	1436645	980	167
0	1437870	981	140
0	1439484	982	171
0	1441008	983	149
0	1442322	984	109
0	1443669	985	124
0	1445128	986	144
0	1446844	987	169
0	1448416	988	141
0	1450119	989	160
0	1451596	990	135
0	1453300	991	165
0	1454535	992	102
0	1456153	993	175
0	1457663	994	135
0	1459272	995	172
0	1460503	996	96
0	1461966	997	144
0	1463679	998	184
0	1465085	999	133
0	1466350	1000	139
0	1468151	1001	184
0	1469401	1002	121
0	1470759	1003	135
0	1472118	1004	122
0	1473595	1005	136
0	1474961	1006	151
0	1476466	1007	148
0	1477885	1008	140
0	1479086	1009	114
0	1480424	1010	134
0	1481969	1011	154
0	1483426	1012	150
0	1484887	1013	132
0	1486140	1014	128
0	1487552	1015	135
0	1489057	1016	146
0	1490562	1017	148
0	1492126	1018	153
0	1493249	1019	86
0	1494550	1020	127
0	1495900	1021	115
0	1497049	1022	118
0	1498570	1023	156
0	1499961	1024	114
0	1501326	1025	120
0	1502846	1026	131
0	1504242	1027	129
0	1505416	1028	99
0	1506749	1029	126
0	1508007	1030	128
0	1509683	1031	169
0	1510897	1032	129
0	1512509	1033	139
0	1513819	1034	127
0	1515352	1035	156
0	1516527	1036	112
0	1517924	1037	142
0	1519240	1038	123
0	1520717	1039	126
0	1522242	1040	155
0	1524073	1041	180
0	1525641	1042	155
0	1527066	1043	124
0	1528352	1044	127
0	1529527	1045	106
0	1530690	1046	110
0	1532455	1047	174
0	1533796	1048	118
0	1535214	1049	137
0	1536643	1050	127
0	1538268	1051	170
0	1539779	1052	138
0	1541313	1053	159
0	1542348	1054	86
0	1543950	1055	143
0	1545578	1056	157
0	1546803	1057	102
0	1548152	1058	126
0	1549537	1059	146
0	1551198	1060	175
0	1553003	1061	182
0	1554351	1062	141
0	1555765	1063	121
0	1557264	1064	152
0	1558661	1065	124
0	1560188	1066	150
0	1561857	1067	176
0	1563211	1068	129
0	1564665	1069	157
0	1566479	1070	194
0	1568035	1071	133
0	1569264	1072	104
0	1570518	1073	105
0	1571792	1074	117
0	1572998	1075	103
0	1574478	1076	135
0	1575684	1077	107
0	1577358	1078	161
0	1578873	1079	140
0	1580176	1080	109
0	1581694	1081	141
0	1583245	1082	156
0	1584778	1083	162
0	1586428	1084	163
0	1587829	1085	132
0	1589027	1086	111
0	1590255	1087	133
0	1591515	1088	105
0	1592669	1089	95
0	1594074	1090	143
0	1595549	1091	146
0	1597145	1092	161
0	1598600	1093	132
0	1599891	1094	118
0	1601354	1095	144
0	1602648	1096	131
0	1604296	1097	157
0	1605981	1098	176
0	1607419	1099	139
0	1609228	1100	167
0	1611040	1101	171
0	1612399	1102	110
0	1614200	1103	166
0	1615753	1104	146
0	1617660	1105	192
0	1619254	1106	169
0	1620838	1107	151
0	1622187	1108	132
0	1623450	1109	130
0	1624886	1110	128
0	1626325	1111	138
0	1627875	1112	151
0	1629421	1113	155
0	1630794	1114	128
0	1632404	1115	167
0	1633866	1116	137
0	1635330	1117	145
0	1636677	1118	132
0	1638135	1119	143
0	1639520	1120	133
0	1640685	1121	128
0	1642475	1122	177
0	1644050	1123	150
0	1645566	1124	157
0	1646688	1125	103
0	1648416	1126	185
0	1649763	1127	152
0	1651510	1128	184
0	1653059	1129	136
0	1654706	1130	173
0	1656205	1131	146
0	1657559	1132	157
0	1659184	1133	160
0	1660621	1134	138
0	1662165	1135	153
0	1663490	1136	132
0	1664649	1137	106
0	1665917	1138	113
0	1667351	1139	129
0	1668520	1140	113
0	1670140	1141	169
0	1671738	1142	169
0	1673249	1143	142
0	1674697	1144	127
0	1676313	1145	153
0	1677555	1146	119
0	1678968	1147	128
0	1680312	1148	113
0	1682001	1149	154
0	1683776	1150	159
0	1685258	1151	143
0	1686363	1152	96
0	1687906	1153	138
0	1689695	1154	180
0	1691095	1155	121
0	1692454	1156	126
0	1694024	1157	147
0	1695529	1158	152
0	1697054	1159	144
0	1698402	1160	136
0	1699796	1161	151
0	1701361	1162	156
0	1702903	1163	151
0	1704697	1164	169
0	1706203	1165	161
0	1707921	1166	151
0	1709266	1167	136
0	1710592	1168	115
0	1711910	1169	115
0	1713017	1170	89
0	1714720	1171	142
0	1716075	1172	134
0	1717334	1173	118
0	1719047	1174	162
0	1720639	1175	147
0	1721891	1176	105
0	1723524	1177	176
0	1724920	1178	135
0	1726539	1179	166
0	1727894	1180	129
0	1729317	1181	130
0	1730396	1182	94
0	1731826	1183	117
0	1733683	1184	180
0	1735175	1185	141
0	1736321	1186	123
0	1737887	1187	123
0	1739662	1188	178
0	1740864	1189	107
0	1742296	1190	140
0	1743467	1191	134
0	1744697	1192	123
0	1746310	1193	150
0	1747898	1194	183
0	1749451	1195	160
0	1750876	1196	146
0	1752305	1197	136
0	1753516	1198	126
0	1755044	1199	143
0	1756388	1200	116
0	1757644	1201	103
0	1759381	1202	170
0	1761386	1203	198
0	1763076	1204	181
0	1764495	1205	144
0	1765814	1206	118
0	1767419	1207	138
0	1768769	1208	125
0	1770233	1209	147
0	1771658	1210	127
0	1772971	1211	124
0	1774127	1212	107
0	1775784	1213	166
0	1777248	1214	161
0	1779148	1215	189
0	1780931	1216	168
0	1782444	1217	158
0	1784078	1218	147
0	1785766	1219	159
0	1787202	1220	142
0	1788611	1221	152
0	1790270	1222	148
0	1791753	1223	140
0	1793272	1224	146
0	1794651	1225	124
0	1795919	1226	107
0	1797417	1227	147
0	1799078	1228	140
0	1800328	1229	119
0	1801668	1230	122
0	1803338	1231	165
0	1804802	1232	133
0	1806102	1233	121
0	1807607	1234	124
0	1809260	1235	164
0	1810433	1236	124
0	1811909	1237	149
0	1813227	1238	127
0	1814797	1239	159
0	1816739	1240	188
0	1818231	1241	131
0	1819670	1242	136
0	1821294	1243	163
0	1822873	1244	146
0	1824302	1245	134
0	1825665	1246	138
0	1827266	1247	166
0	1828681	1248	134
0	1830197	1249	137
0	1831936	1250	201
0	1833341	1251	120
0	1834563	1252	107
0	1835811	1253	117
0	1837081	1254	123
0	1838657	1255	153
0	1839896	1256	102
0	1841430	1257	155
0	1842789	1258	128
0	1844105	1259	135
0	1845375	1260	126
0	1846981	1261	149
0	1848354	1262	132
0	1849851	1263	150
0	1851465	1264	157
0	1853209	1265	175
0	1854654	1266	132
0	1856057	1267	144
0	1857732	1268	180
0	1859260	1269	157
0	1860803	1270	133
0	1862491	1271	163
0	1864172	1272	168
0	1865840	1273	165
0	1867668	1274	175
0	1869178	1275	147
0	1870786	1276	155
0	1872361	1277	156
0	1873890	1278	144
0	1875541	1279	160
0	1877162	1280	153
0	1878595	1281	130
0	1879823	1282	111
0	1881070	1283	126
0	1882343	1284	128
0	1883876	1285	150
0	1885330	1286	129
0	1886913	1287	168
0	1887995	1288	93
0	1889171	1289	121
0	1890514	1290	121
0	1891945	1291	126
0	1893603	1292	169
0	1894972	1293	150
0	1896300	1294	123
0	1897961	1295	154
0	1899563	1296	135
0	1900888	1297	124
0	1902660	1298	197
0	1904346	1299	167
0	1905792	1300	146
0	1907337	1301	140
0	1908964	1302	154
0	1910454	1303	131
0	1911908	1304	135
0	1913326	1305	137
0	1914677	1306	118
0	1916100	1307	136
0	1917521	1308	148
0	1919105	1309	149
0	1920501	1310	124
0	1921940	1311	142
0	1923390	1312	147
0	1924985	1313	142
0	1926390	1314	140
0	1927894	1315	153
0	1929472	1316	159
0	1931033	1317	166
0	1932600	1318	156
0	1933766	1319	103
0	1934698	1320	104
0	1936400	1321	159
0	1937846	1322	119
0	1939092	1323	95
0	1940375	1324	116
0	1941849	1325	157
0	1943367	1326	155
0	1945047	1327	163
0	1946700	1328	158
0	1947996	1329	125
0	1949354	1330	128
0	1950599	1331	106
0	1952209	1332	155
0	1953936	1333	162
0	1954991	1334	118
0	1956517	1335	159
0	1957972	1336	146
0	1959346	1337	131
0	1960851	1338	116
0	1962216	1339	140
0	1963721	1340	151
0	1965113	1341	117
0	1966439	1342	123
0	1967883	1343	139
0	1969208	1344	110
0	1970248	1345	77
0	1971558	1346	125
0	1972794	1347	119
0	1974644	1348	175
0	1976145	1349	168
0	1977991	1350	206
0	1979741	1351	167
0	1981220	1352	152
0	1982602	1353	129
0	1984195	1354	150
0	1985795	1355	139
0	1987144	1356	120
0	1988881	1357	180
0	1990462	1358	154
0	1991956	1359	161
0	1993690	1360	158
0	1995403	1361	172
0	1997104	1362	172
0	1998790	1363	163
0	2000298	1364	141
0	2001730	1365	127
0	2003280	1366	145
0	2004942	1367	139
0	2006248	1368	121
0	2007632	1369	121
0	2009393	1370	173
0	2011008	1371	162
0	2012595	1372	146
0	2014289	1373	177
0	2015565	1374	113
0	2016797	1375	111
0	2018419	1376	153
0	2019846	1377	124
0	2020950	1378	97
0	2022270	1379	131
0	2024078	1380	186
0	2025973	1381	182
0	2027772	1382	158
0	2029545	1383	168
0	2031432	1384	202
0	2032568	1385	101
0	2034311	1386	180
0	2035824	1387	138
0	2037480	1388	171
0	2039242	1389	157
0	2040558	1390	132
0	2041898	1391	133
0	2042915	1392	100
0	2044355	1393	129
0	2045815	1394	143
0	2047261	1395	127
0	2048607	1396	129
0	2050032	1397	148
0	2051349	1398	140
0	2052718	1399	120
0	2053919	1400	107
0	2055326	1401	146
0	2057215	1402	150
0	2058674	1403	148
0	2060346	1404	149
0	2061799	1405	132
0	2063086	1406	126
0	2064606	1407	149
0	2065966	1408	135
0	2067059	1409	102
0	2069100	1410	183
0	2070950	1411	199
0	2072269	1412	116
0	2073873	1413	163
0	2075061	1414	123
0	2076954	1415	188
0	2078062	1416	95
0	2079487	1417	132
0	2080925	1418	131
0	2082047	1419	93
0	2083437	1420	124
0	2084693	1421	103
0	2086226	1422	164
0	2087591	1423	128
0	2088854	1424	108
0	2090290	1425	129
0	2092039	1426	168
0	2093705	1427	151
0	2095051	1428	117
0	2096565	1429	145
0	2098210	1430	159
0	2099563	1431	126
0	2101091	1432	141
0	2102543	1433	131
0	2104026	1434	154
0	2105705	1435	158
0	2107174	1436	126
0	2108597	1437	132
0	2109972	1438	138
0	2111351	1439	148
0	2112687	1440	134
0	2114153	1441	131
0	2115598	1442	136
0	2116905	1443	126
0	2118438	1444	140
0	2120040	1445	139
0	2121528	1446	157
0	2123139	1447	146
0	2124291	1448	123
0	2125651	1449	127
0	2127397	1450	166
0	2128637	1451	109
0	2130247	1452	171
0	2131830	1453	146
0	2133103	1454	132
0	2134707	1455	159
0	2135875	1456	103
0	2137523	1457	153
0	2139109	1458	157
0	2140379	1459	113
0	2141926	1460	137
0	2143342	1461	147
0	2144791	1462	150
0	2146494	1463	162
0	2147740	1464	137
0	2149212	1465	127
0	2150997	1466	184
0	2151950	1467	96
0	2153311	1468	132
0	2154676	1469	132
0	2156445	1470	171
0	2158330	1471	192
0	2159567	1472	124
0	2161103	1473	133
0	2162701	1474	179
0	2164215	1475	155
0	2166021	1476	167
0	2167584	1477	172
0	2169047	1478	148
0	2170106	1479	94
0	2171462	1480	124
0	2173180	1481	181
0	2174455	1482	124
0	2176059	1483	147
0	2177473	1484	119
0	2178874	1485	134
0	2180553	1486	150
0	2182165	1487	157
0	2183508	1488	114
0	2184716	1489	105
0	2186319	1490	153
0	2187482	1491	108
0	2188899	1492	130
0	2190161	1493	115
0	2191773	1494	173
0	2193519	1495	177
0	2195231	1496	175
0	2196715	1497	145
0	2197982	1498	126
0	2199452	1499	123
0	2200884	1500	146
0	2202234	1501	125
0	2203780	1502	147
0	2204970	1503	101
0	2206195	1504	128
0	2207433	1505	127
0	2208914	1506	138
0	2210242	1507	121
0	2211891	1508	166
0	2213460	1509	174
0	2215155	1510	171
0	2216584	1511	126
0	2218046	1512	137
0	2219746	1513	169
0	2221400	1514	173
0	2222832	1515	141
0	2224051	1516	118
0	2225236	1517	108
0	2226517	1518	128
0	2227685	1519	97
0	2229389	1520	160
0	2231148	1521	174
0	2232194	1522	99
0	2233830	1523	141
0	2235339	1524	142
0	2236619	1525	125
0	2237973	1526	149
0	2239215	1527	127
0	2240598	1528	138
0	2242243	1529	142
0	2243938	1530	161
0	2245352	1531	133
0	2246904	1532	169
0	2248537	1533	154
0	2250110	1534	156
0	2251445	1535	140
0	2253206	1536	172
0	2254548	1537	135
0	2256183	1538	160
0	2257657	1539	141
0	2259054	1540	113
0	2260366	1541	119
0	2261833	1542	128
0	2263209	1543	119
0	2264754	1544	144
0	2266160	1545	129
0	2267614	1546	133
0	2269358	1547	173
0	2270567	1548	112
0	2272516	1549	198
0	2273945	1550	133
0	2275188	1551	98
0	2276542	1552	111
0	2277772	1553	119
0	2279151	1554	134
0	2280767	1555	151
0	2282245	1556	137
0	2284253	1557	175
0	2285797	1558	141
0	2286955	1559	105
0	2288595	1560	150
0	2290073	1561	145
0	2291688	1562	140
0	2292922	1563	107
0	2294183	1564	134
0	2295596	1565	108
0	2297231	1566	164
0	2298596	1567	130
0	2300253	1568	160
0	2301797	1569	135
0	2303465	1570	150
0	2304977	1571	153
0	2306696	1572	178
0	2308202	1573	135
0	2309893	1574	150
0	2311516	1575	146
0	2312714	1576	115
0	2314071	1577	112
0	2315479	1578	143
0	2317067	1579	167
0	2318497	1580	134
0	2319970	1581	146
0	2321620	1582	165
0	2323068	1583	141
0	2324650	1584	173
0	2326070	1585	139
0	2327416	1586	127
0	2328623	1587	104
0	2329756	1588	86
0	2330922	1589	121
0	2332609	1590	163
0	2334339	1591	171
0	2336158	1592	194
0	2337866	1593	157
0	2339631	1594	180
0	2340791	1595	99
0	2342264	1596	150
0	2343639	1597	140
0	2345075	1598	143
0	2346523	1599	141
0	2347880	1600	115
0	2349258	1601	123
0	2350517	1602	126
0	2351774	1603	128
0	2353354	1604	151
0	2354967	1605	174
0	2356208	1606	122
0	2357565	1607	138
0	2358697	1608	101
0	2359658	1609	84
0	2360981	1610	123
0	2362691	1611	149
0	2364249	1612	163
0	2365591	1613	127
0	2366796	1614	100