version 3
run SimulationTime-437-20240107-16:20:22-21100
attr configname SimulationTime
attr datetime 20240107-16:20:22
attr datetimef 20240107-162022
attr experiment SimulationTime
attr inifile omnetpp.ini
attr iterationvars ""
attr iterationvarsd ""
attr iterationvarsf ""
attr measurement ""
attr network System
attr processid 21100
attr repetition 437
attr replication #437
attr resultdir results
attr runnumber 437
attr seedset 437
config **.cpu.rate 1000
config **.hd.rateProcessing 250
config **.webServer.web_server_rate 100
config **.p1 0.35
config **.p2 0.40
config network System
config num-rngs 4
config **.cpu.rng-0 0
config **.cpu.rng-1 1
config **.hd.rng-0 2
config **.webServer.rng-0 3
config repeat 500
config seed-set 437
config sim-time-limit 10000s
config **.client.numClients 40

vector 0 System.server.cpu requestCounterStat:vector ETV
attr recordingmode vector
attr source requestCounter
vector 1 System.server.hd utilizationHdStat:vector ETV
attr recordingmode vector
attr source utilizationHd
vector 2 System.server.cpu utilizationCpuStat:vector ETV
attr recordingmode vector
attr source utilizationCpu
vector 3 System.webServer utilizationWsStat:vector ETV
attr recordingmode vector
attr source utilizationWs
0	2064	1	217
0	3498	2	149
0	5284	3	177
0	6793	4	136
0	8278	5	136
0	9572	6	95
0	11040	7	115
0	12746	8	167
0	14366	9	143
0	15832	10	122
0	17044	11	113
0	18341	12	132
0	19237	13	89
0	20698	14	164
0	22155	15	150
0	23707	16	141
0	25188	17	150
0	26849	18	160
0	28260	19	132
0	29743	20	151
0	31483	21	149
0	32815	22	123
0	34547	23	167
0	35929	24	125
0	37434	25	134
0	39000	26	149
0	40603	27	146
0	41741	28	89
0	42985	29	121
0	44438	30	123
0	45930	31	143
0	47280	32	117
0	48874	33	155
0	50327	34	146
0	51743	35	135
0	53340	36	168
0	54674	37	131
0	55908	38	121
0	57399	39	146
0	58771	40	146
0	60472	41	196
0	61533	42	104
0	63502	43	198
0	64970	44	137
0	66887	45	216
0	68494	46	152
0	69938	47	141
0	71520	48	147
0	72619	49	94
0	73782	50	117
0	75502	51	161
0	76947	52	140
0	78550	53	150
0	80167	54	144
0	81164	55	80
0	82359	56	130
0	83829	57	127
0	85180	58	122
0	86798	59	159
0	88146	60	128
0	89758	61	145
0	90714	62	85
0	91831	63	98
0	93369	64	153
0	94767	65	147
0	96245	66	139
0	97939	67	161
0	99036	68	102
0	100378	69	121
0	101848	70	156
0	103279	71	130
0	104944	72	184
0	106526	73	159
0	107996	74	127
0	109808	75	173
0	111164	76	127
0	112857	77	158
0	114475	78	175
0	115751	79	113
0	117256	80	119
0	118737	81	134
0	120115	82	121
0	121719	83	157
0	123177	84	139
0	124489	85	121
0	125993	86	151
0	127427	87	125
0	129093	88	159
0	130254	89	112
0	131487	90	103
0	133213	91	161
0	134638	92	134
0	136170	93	169
0	137803	94	158
0	139104	95	116
0	140520	96	131
0	142072	97	153
0	144070	98	201
0	145373	99	134
0	146961	100	172
0	148370	101	140
0	149966	102	159
0	151574	103	165
0	152900	104	121
0	154374	105	133
0	155881	106	146
0	157215	107	111
0	158588	108	128
0	160044	109	141
0	162022	110	218
0	163383	111	132
0	164715	112	147
0	165970	113	128
0	167232	114	123
0	168983	115	166
0	170097	116	111
0	171414	117	124
0	173128	118	187
0	174900	119	205
0	176342	120	132
0	177983	121	156
0	179359	122	125
0	180987	123	169
0	182375	124	147
0	183399	125	97
0	184798	126	134
0	186186	127	125
0	187855	128	174
0	189058	129	112
0	190753	130	149
0	192352	131	152
0	193845	132	138
0	195538	133	168
0	197169	134	146
0	198518	135	124
0	199925	136	142
0	201120	137	104
0	202854	138	187
0	204344	139	153
0	205772	140	144
0	207318	141	165
0	208784	142	137
0	210071	143	126
0	211576	144	140
0	213082	145	141
0	214267	146	116
0	215953	147	175
0	217769	148	161
0	219176	149	132
0	220677	150	139
0	222546	151	196
0	223431	152	68
0	224512	153	92
0	226005	154	148
0	227393	155	137
0	228862	156	148
0	229957	157	94
0	231435	158	139
0	232908	159	140
0	234222	160	126
0	235631	161	128
0	237085	162	131
0	238149	163	87
0	239431	164	129
0	240670	165	114
0	242083	166	128
0	244188	167	216
0	245699	168	158
0	246946	169	120
0	248276	170	110
0	249684	171	141
0	251337	172	156
0	252871	173	133
0	254155	174	121
0	255426	175	124
0	257041	176	166
0	257997	177	81
0	259414	178	118
0	260736	179	135
0	262125	180	131
0	263238	181	104
0	264792	182	143
0	266502	183	163
0	268133	184	152
0	269887	185	159
0	271400	186	158
0	272964	187	157
0	274380	188	135
0	275810	189	137
0	277055	190	125
0	278509	191	137
0	280064	192	142
0	281651	193	126
0	283481	194	175
0	284589	195	113
0	286087	196	139
0	287505	197	143
0	288987	198	147
0	290594	199	134
0	292147	200	149
0	293626	201	134
0	294892	202	125
0	296360	203	133
0	297719	204	118
0	299600	205	172
0	301051	206	142
0	302814	207	186
0	304477	208	156
0	306371	209	191
0	307884	210	137
0	309316	211	133
0	310487	212	92
0	312099	213	161
0	313402	214	108
0	314711	215	124
0	316238	216	140
0	317767	217	152
0	319122	218	124
0	320752	219	165
0	322184	220	130
0	323380	221	121
0	324674	222	131
0	326588	223	207
0	327801	224	112
0	329499	225	133
0	330901	226	133
0	332481	227	169
0	333723	228	127
0	335129	229	133
0	336516	230	127
0	338041	231	146
0	339528	232	156
0	340840	233	95
0	342415	234	152
0	344196	235	176
0	345921	236	180
0	347012	237	86
0	348277	238	120
0	349704	239	146
0	351020	240	108
0	352242	241	117
0	353540	242	113
0	354836	243	119
0	356254	244	137
0	357910	245	139
0	358850	246	83
0	360511	247	164
0	362214	248	158
0	363498	249	109
0	365431	250	181
0	366673	251	105
0	368493	252	209
0	369893	253	129
0	371400	254	142
0	372796	255	141
0	374686	256	189
0	376120	257	147
0	377475	258	142
0	378830	259	144
0	380231	260	131
0	381796	261	168
0	383464	262	149
0	385149	263	156
0	386290	264	102
0	387689	265	136
0	389051	266	121
0	390540	267	130
0	391893	268	140
0	393447	269	167
0	394948	270	141
0	396419	271	152
0	397778	272	122
0	399189	273	150
0	400877	274	173
0	402195	275	123
0	404119	276	179
0	405422	277	116
0	406848	278	135
0	408178	279	135
0	409596	280	136
0	411228	281	153
0	413070	282	183
0	414947	283	200
0	416432	284	150
0	417979	285	158
0	419331	286	121
0	420981	287	159
0	422289	288	137
0	423494	289	102
0	424706	290	126
0	426175	291	144
0	427690	292	148
0	429156	293	145
0	430665	294	140
0	432189	295	139
0	433984	296	180
0	435621	297	138
0	437084	298	124
0	438318	299	119
0	439694	300	136
0	441205	301	134
0	442570	302	130
0	443731	303	114
0	445152	304	122
0	446608	305	135
0	448307	306	186
0	449706	307	122
0	451220	308	139
0	452566	309	133
0	454419	310	179
0	455802	311	152
0	457291	312	128
0	458864	313	144
0	460217	314	124
0	461423	315	111
0	462716	316	124
0	464024	317	121
0	465393	318	116
0	467033	319	149
0	468607	320	146
0	469983	321	149
0	471446	322	134
0	472634	323	113
0	474096	324	139
0	475356	325	119
0	477081	326	182
0	478742	327	146
0	480167	328	116
0	481488	329	134
0	482968	330	140
0	484481	331	130
0	485734	332	106
0	487093	333	138
0	488637	334	149
0	490278	335	174
0	491670	336	139
0	493451	337	176
0	495122	338	162
0	496617	339	142
0	498308	340	159
0	499653	341	130
0	500973	342	129
0	502362	343	120
0	504041	344	164
0	505911	345	197
0	507152	346	108
0	508275	347	108
0	509785	348	153
0	511105	349	113
0	512487	350	114
0	513914	351	118
0	515293	352	126
0	516638	353	112
0	518097	354	134
0	519483	355	127
0	520935	356	153
0	522205	357	115
0	523511	358	127
0	525101	359	155
0	526460	360	119
0	527926	361	141
0	529519	362	174
0	530964	363	132
0	532711	364	176
0	534022	365	134
0	535527	366	134
0	537374	367	180
0	538339	368	96
0	539805	369	147
0	541329	370	140
0	542571	371	123
0	543929	372	129
0	545371	373	137
0	546801	374	131
0	548336	375	152
0	549860	376	139
0	551453	377	160
0	552868	378	154
0	554164	379	119
0	555616	380	126
0	556990	381	143
0	558265	382	114
0	559570	383	120
0	561152	384	157
0	562639	385	144
0	564109	386	133
0	565662	387	162
0	567129	388	154
0	568414	389	120
0	569649	390	113
0	570828	391	102
0	572571	392	168
0	574306	393	162
0	575740	394	129
0	577038	395	135
0	578769	396	164
0	580650	397	170
0	582404	398	153
0	584078	399	161
0	586001	400	195
0	587360	401	120
0	588593	402	112
0	590054	403	144
0	591582	404	155
0	593073	405	136
0	594799	406	175
0	596209	407	143
0	597667	408	131
0	599568	409	196
0	601232	410	176
0	602967	411	174
0	604455	412	125
0	605597	413	115
0	607140	414	154
0	608561	415	134
0	609757	416	127
0	610947	417	115
0	612213	418	111
0	613743	419	147
0	615382	420	173
0	616664	421	119
0	617839	422	108
0	619228	423	124
0	620596	424	131
0	621699	425	102
0	622987	426	137
0	624650	427	144
0	626206	428	145
0	627693	429	154
0	629253	430	150
0	631199	431	171
0	632466	432	116
0	634139	433	150
0	635550	434	126
0	636890	435	121
0	638250	436	129
0	639616	437	135
0	641385	438	166
0	642888	439	146
0	644236	440	118
0	645438	441	107
0	646631	442	116
0	648074	443	132
0	649973	444	200
0	651479	445	153
0	652479	446	89
0	653800	447	122
0	655116	448	127
0	656329	449	106
0	657672	450	127
0	659093	451	130
0	660657	452	155
0	662069	453	143
0	663625	454	143
0	664899	455	117
0	666423	456	145
0	667656	457	124
0	669044	458	129
0	670335	459	132
0	671588	460	129
0	673168	461	143
0	674661	462	136
0	676062	463	114
0	677466	464	147
0	679208	465	149
0	680478	466	107
0	681574	467	97
0	683234	468	169
0	684921	469	146
0	686509	470	154
0	688026	471	158
0	689686	472	171
0	691018	473	127
0	692444	474	135
0	693947	475	140
0	695622	476	152
0	697170	477	151
0	698566	478	123
0	699856	479	119
0	701346	480	128
0	702719	481	122
0	703995	482	125
0	705433	483	143
0	706902	484	136
0	708087	485	92
0	709385	486	127
0	711188	487	202
0	712520	488	121
0	714336	489	171
0	715759	490	141
0	717044	491	132
0	718657	492	174
0	720126	493	160
0	721340	494	103
0	722882	495	149
0	724329	496	140
0	725953	497	165
0	727506	498	160
0	729229	499	174
0	730716	500	149
0	732299	501	146
0	734089	502	179
0	735756	503	146
0	737400	504	167
0	738908	505	151
0	740161	506	126
0	741620	507	136
0	743303	508	170
0	744738	509	124
0	746348	510	158
0	748391	511	204
0	750203	512	169
0	751407	513	97
0	752837	514	127
0	754249	515	123
0	755547	516	125
0	756893	517	121
0	758560	518	162
0	759909	519	142
0	761387	520	146
0	762839	521	131
0	764394	522	152
0	765989	523	160
0	767589	524	155
0	768955	525	131
0	770397	526	141
0	771860	527	144
0	773464	528	151
0	774813	529	140
0	776028	530	127
0	777334	531	123
0	778726	532	121
0	779967	533	112
0	781502	534	166
0	783101	535	168
0	784962	536	172
0	786308	537	139
0	787784	538	127
0	789356	539	153
0	790615	540	109
0	792129	541	135
0	793436	542	126
0	794680	543	129
0	796283	544	136
0	797905	545	153
0	799433	546	141
0	800722	547	122
0	801988	548	113
0	803294	549	139
0	804514	550	108
0	806172	551	155
0	807548	552	151
0	808865	553	104
0	810237	554	113
0	811832	555	184
0	813185	556	136
0	814593	557	137
0	815938	558	100
0	817571	559	164
0	818692	560	105
0	820251	561	148
0	821921	562	161
0	823497	563	149
0	824811	564	125
0	826264	565	154
0	827634	566	149
0	828956	567	145
0	830791	568	194
0	832237	569	143
0	833506	570	109
0	834918	571	129
0	836096	572	99
0	837580	573	129
0	838987	574	154
0	840302	575	114
0	841792	576	147
0	843293	577	144
0	844698	578	132
0	846258	579	153
0	847786	580	136
0	848984	581	115
0	850345	582	128
0	851977	583	151
0	853692	584	164
0	854614	585	83
0	856075	586	146
0	857745	587	149
0	859034	588	116
0	860557	589	160
0	862054	590	149
0	863783	591	174
0	865339	592	151
0	867014	593	162
0	868770	594	157
0	870230	595	141
0	871551	596	136
0	872861	597	119
0	874407	598	151
0	875702	599	110
0	876838	600	104
0	878323	601	152
0	879781	602	143
0	881517	603	161
0	883101	604	157
0	884617	605	149
0	886286	606	150
0	887721	607	128
0	889191	608	131
0	890732	609	138
0	892271	610	151
0	893710	611	142
0	895641	612	202
0	897090	613	146
0	898587	614	124
0	899900	615	128
0	901324	616	141
0	903068	617	189
0	904598	618	143
0	905922	619	127
0	907429	620	155
0	909110	621	146
0	910697	622	134
0	912019	623	119
0	913489	624	135
0	914690	625	120
0	916374	626	169
0	917715	627	130
0	919259	628	155
0	920730	629	136
0	922074	630	112
0	923559	631	142
0	925293	632	171
0	926808	633	146
0	927986	634	103
0	929482	635	137
0	930898	636	133
0	932290	637	137
0	933378	638	105
0	934581	639	110
0	936249	640	178
0	937585	641	137
0	939009	642	147
0	940480	643	146
0	941837	644	128
0	943317	645	149
0	944837	646	133
0	946418	647	146
0	947981	648	136
0	949522	649	150
0	951159	650	149
0	952365	651	119
0	954036	652	184
0	955372	653	145
0	956714	654	141
0	958340	655	157
0	959858	656	125
0	961338	657	143
0	962828	658	133
0	964399	659	154
0	966031	660	168
0	967638	661	174
0	969156	662	139
0	970861	663	158
0	972224	664	156
0	973677	665	124
0	975316	666	134
0	976660	667	109
0	978092	668	143
0	979490	669	119
0	981054	670	152
0	982504	671	113
0	984191	672	166
0	985957	673	167
0	987915	674	217
0	989310	675	124
0	990897	676	174
0	992162	677	124
0	993444	678	127
0	994463	679	104
0	995736	680	117
0	997164	681	123
0	998670	682	145
0	1000313	683	150
0	1001623	684	131
0	1002901	685	121
0	1004365	686	153
0	1006035	687	165
0	1007238	688	118
0	1008409	689	114
0	1009499	690	110
0	1010902	691	162
0	1012674	692	193
0	1013906	693	121
0	1015433	694	154
0	1016697	695	117
0	1018259	696	139
0	1019729	697	143
0	1021053	698	141
0	1022375	699	111
0	1023822	700	125
0	1025282	701	149
0	1026753	702	142
0	1028099	703	139
0	1029944	704	170
0	1031195	705	128
0	1032210	706	94
0	1033445	707	110
0	1034869	708	125
0	1036260	709	138
0	1037874	710	152
0	1039120	711	117
0	1040457	712	108
0	1042097	713	161
0	1043519	714	141
0	1044913	715	127
0	1046255	716	123
0	1047782	717	136
0	1049090	718	121
0	1050872	719	165
0	1052238	720	132
0	1053676	721	145
0	1055228	722	139
0	1056506	723	119
0	1058273	724	202
0	1059485	725	109
0	1060766	726	108
0	1062074	727	125
0	1063500	728	123
0	1064849	729	128
0	1066319	730	134
0	1067724	731	116
0	1068945	732	106
0	1070483	733	141
0	1071803	734	115
0	1072911	735	101
0	1074411	736	151
0	1076147	737	175
0	1078028	738	208
0	1079449	739	138
0	1080815	740	134
0	1082080	741	120
0	1083659	742	160
0	1085346	743	168
0	1087012	744	155
0	1088303	745	110
0	1089819	746	155
0	1091320	747	158
0	1092851	748	156
0	1094321	749	149
0	1095565	750	124
0	1097008	751	130
0	1098681	752	168
0	1100105	753	117
0	1101991	754	185
0	1103126	755	94
0	1104543	756	150
0	1105783	757	117
0	1107091	758	125
0	1108825	759	179
0	1110270	760	131
0	1111863	761	162
0	1113423	762	167
0	1115046	763	156
0	1116347	764	114
0	1117921	765	151
0	1119313	766	129
0	1120706	767	142
0	1122098	768	119
0	1123477	769	138
0	1125263	770	178
0	1126709	771	143
0	1128291	772	135
0	1129853	773	169
0	1131355	774	167
0	1132671	775	129
0	1134235	776	155
0	1135632	777	128
0	1137046	778	125
0	1138702	779	143
0	1140337	780	151
0	1141978	781	146
0	1143626	782	163
0	1145097	783	142
0	1146417	784	119
0	1147766	785	122
0	1149117	786	128
0	1151118	787	188
0	1152767	788	160
0	1154254	789	154
0	1155751	790	123
0	1157068	791	124
0	1158527	792	150
0	1159941	793	127
0	1161145	794	111
0	1162480	795	122
0	1164057	796	156
0	1165833	797	159
0	1167051	798	97
0	1168535	799	147
0	1169878	800	109
0	1171111	801	116
0	1172353	802	107
0	1173881	803	159
0	1175223	804	149
0	1176771	805	135
0	1178327	806	145
0	1179734	807	122
0	1181344	808	161
0	1182906	809	147
0	1184332	810	122
0	1185806	811	125
0	1187229	812	142
0	1188629	813	139
0	1190202	814	168
0	1191956	815	179
0	1193360	816	145
0	1194938	817	157
0	1196189	818	118
0	1197604	819	136
0	1198834	820	112
0	1200344	821	149
0	1201361	822	102
0	1202793	823	117
0	1204287	824	153
0	1205820	825	148
0	1207099	826	126
0	1208566	827	138
0	1209809	828	116
0	1210962	829	96
0	1212186	830	114
0	1213665	831	142
0	1215440	832	186
0	1216961	833	148
0	1218689	834	157
0	1220005	835	103
0	1221428	836	138
0	1222956	837	131
0	1224444	838	149
0	1225702	839	107
0	1226915	840	131
0	1228699	841	165
0	1230085	842	139
0	1231481	843	159
0	1232820	844	132
0	1234132	845	109
0	1235747	846	138
0	1236872	847	106
0	1238222	848	129
0	1239488	849	131
0	1241025	850	141
0	1242321	851	119
0	1243781	852	133
0	1245387	853	163
0	1246646	854	134
0	1247989	855	126
0	1249673	856	153
0	1251466	857	188
0	1252788	858	143
0	1254125	859	136
0	1255338	860	139
0	1256923	861	140
0	1258212	862	118
0	1259749	863	154
0	1261173	864	141
0	1262374	865	106
0	1263624	866	125
0	1265177	867	160
0	1266479	868	119
0	1267803	869	133
0	1269173	870	134
0	1270834	871	164
0	1272240	872	123
0	1273849	873	136
0	1275624	874	152
0	1277028	875	139
0	1278213	876	112
0	1279739	877	153
0	1281449	878	187
0	1282895	879	145
0	1284178	880	127
0	1285492	881	115
0	1286794	882	115
0	1288278	883	133
0	1289810	884	135
0	1291189	885	144
0	1292441	886	105
0	1293709	887	107
0	1294987	888	111
0	1296771	889	173
0	1298149	890	124
0	1299713	891	149
0	1301239	892	141
0	1302546	893	122
0	1304016	894	131
0	1305777	895	168
0	1307174	896	136
0	1308918	897	185
0	1310513	898	146
0	1312077	899	145
0	1313718	900	155
0	1315179	901	140
0	1316445	902	127
0	1317727	903	111
0	1318788	904	120
0	1320680	905	217
0	1322393	906	164
0	1323994	907	148
0	1325441	908	130
0	1326842	909	132
0	1328230	910	130
0	1329558	911	119
0	1331495	912	176
0	1333021	913	155
0	1334505	914	137
0	1336043	915	151
0	1337715	916	149
0	1339294	917	166
0	1340731	918	134
0	1342091	919	127
0	1343593	920	138
0	1345303	921	173
0	1346680	922	118
0	1348131	923	126
0	1349767	924	153
0	1351134	925	148
0	1353045	926	182
0	1354414	927	144
0	1355895	928	144
0	1357576	929	152
0	1358953	930	125
0	1360450	931	130
0	1361886	932	135
0	1363322	933	133
0	1365028	934	165
0	1366748	935	175
0	1368552	936	157
0	1370028	937	141
0	1371784	938	181
0	1372842	939	91
0	1374427	940	173
0	1375732	941	126
0	1377280	942	133
0	1378620	943	127
0	1379929	944	134
0	1381361	945	141
0	1382965	946	133
0	1384234	947	114
0	1386108	948	181
0	1387619	949	144
0	1388863	950	106
0	1390640	951	160
0	1392143	952	134
0	1393772	953	158
0	1395283	954	154
0	1397044	955	180
0	1398391	956	108
0	1399990	957	168
0	1401643	958	170
0	1403070	959	126
0	1404471	960	133
0	1406015	961	147
0	1407123	962	105
0	1408660	963	144
0	1409946	964	125
0	1411051	965	94
0	1412290	966	144
0	1413519	967	100
0	1414840	968	118
0	1416377	969	152
0	1417926	970	157
0	1419507	971	154
0	1420944	972	152
0	1422440	973	145
0	1423793	974	130
0	1425467	975	173
0	1427029	976	159
0	1428512	977	126
0	1429798	978	115
0	1431270	979	153
0	1432395	980	111
0	1433845	981	139
0	1435530	982	180
0	1436897	983	124
0	1438332	984	138
0	1439415	985	94
0	1440630	986	132
0	1441968	987	139
0	1443201	988	112
0	1444493	989	129
0	1446209	990	172
0	1447860	991	162
0	1449183	992	122
0	1450811	993	147
0	1452376	994	146
0	1453379	995	82
0	1454661	996	123
0	1456105	997	141
0	1457363	998	119
0	1458917	999	141
0	1460218	1000	121
0	1461463	1001	124
0	1462767	1002	129
0	1464236	1003	142
0	1465750	1004	173
0	1467373	1005	164
0	1468866	1006	130
0	1470403	1007	160
0	1471680	1008	128
0	1473363	1009	160
0	1474788	1010	155
0	1476528	1011	179
0	1478065	1012	140
0	1479485	1013	143
0	1480961	1014	151
0	1482872	1015	198
0	1484434	1016	147
0	1485936	1017	159
0	1487512	1018	157
0	1489068	1019	151
0	1490917	1020	177
0	1492165	1021	113
0	1493426	1022	122
0	1494768	1023	137
0	1495720	1024	79
0	1497344	1025	159
0	1498732	1026	125
0	1500117	1027	148
0	1501719	1028	151
0	1503302	1029	138
0	1504787	1030	137
0	1506152	1031	134
0	1507436	1032	133
0	1508962	1033	141
0	1510760	1034	179
0	1512442	1035	157
0	1514103	1036	164
0	1515448	1037	114
0	1516575	1038	90
0	1517985	1039	149
0	1519317	1040	124
0	1520566	1041	110
0	1521979	1042	146
0	1523193	1043	115
0	1524538	1044	124
0	1526053	1045	134
0	1527583	1046	145
0	1529090	1047	156
0	1530806	1048	153
0	1532297	1049	146
0	1533656	1050	137
0	1535394	1051	171
0	1536866	1052	133
0	1538006	1053	113
0	1539623	1054	148
0	1540968	1055	124
0	1542480	1056	147
0	1544022	1057	129
0	1545670	1058	173
0	1547189	1059	150
0	1548547	1060	130
0	1550093	1061	139
0	1551569	1062	137
0	1553173	1063	147
0	1554920	1064	158
0	1556652	1065	179
0	1557959	1066	114
0	1559324	1067	122
0	1560591	1068	124
0	1561917	1069	127
0	1563261	1070	124
0	1564605	1071	113
0	1566146	1072	150
0	1567597	1073	158
0	1569268	1074	180
0	1570867	1075	150
0	1572766	1076	198
0	1574080	1077	121
0	1575457	1078	130
0	1576880	1079	138
0	1578526	1080	158
0	1580002	1081	133
0	1581462	1082	153
0	1582832	1083	145
0	1584401	1084	108
0	1585926	1085	142
0	1587307	1086	128
0	1588512	1087	114
0	1589868	1088	123
0	1591265	1089	132
0	1592789	1090	168
0	1594170	1091	116
0	1595410	1092	109
0	1597040	1093	167
0	1598590	1094	139
0	1600012	1095	125
0	1601323	1096	132
0	1603051	1097	177
0	1604729	1098	147
0	1606292	1099	148
0	1607682	1100	128
0	1609094	1101	125
0	1610457	1102	126
0	1612003	1103	139
0	1613470	1104	144
0	1615136	1105	173
0	1616537	1106	144
0	1618020	1107	138
0	1619236	1108	121
0	1620552	1109	123
0	1621986	1110	144
0	1623767	1111	176
0	1625168	1112	144
0	1626665	1113	136
0	1628243	1114	147
0	1629541	1115	121
0	1631306	1116	190
0	1632799	1117	142
0	1634186	1118	116
0	1635749	1119	146
0	1637182	1120	127
0	1638541	1121	142
0	1640089	1122	153
0	1641508	1123	124
0	1642867	1124	118
0	1644553	1125	181
0	1645994	1126	140
0	1647351	1127	128
0	1649017	1128	143
0	1650401	1129	125
0	1651789	1130	120
0	1653455	1131	159
0	1654721	1132	127
0	1656252	1133	166
0	1658076	1134	177
0	1660005	1135	192
0	1661663	1136	151
0	1663345	1137	157
0	1664771	1138	141
0	1666218	1139	154
0	1667987	1140	181
0	1669553	1141	151
0	1670865	1142	123
0	1672227	1143	131
0	1673461	1144	111
0	1675007	1145	151
0	1676357	1146	113
0	1678017	1147	167
0	1679781	1148	185
0	1681356	1149	154
0	1682878	1150	158
0	1684328	1151	143
0	1685529	1152	96
0	1686846	1153	134
0	1688218	1154	119
0	1689643	1155	160
0	1691325	1156	147
0	1693085	1157	159
0	1694597	1158	141
0	1695796	1159	112
0	1697399	1160	149
0	1698638	1161	102
0	1699642	1162	85
0	1701139	1163	128
0	1702347	1164	125
0	1703865	1165	127
0	1705361	1166	145
0	1707094	1167	172
0	1708478	1168	129
0	1710287	1169	184
0	1711982	1170	153
0	1713479	1171	152
0	1714899	1172	141
0	1716342	1173	138
0	1717590	1174	113
0	1719093	1175	132
0	1720621	1176	145
0	1721829	1177	105
0	1723327	1178	125
0	1724828	1179	156
0	1726378	1180	148
0	1727744	1181	125
0	1729240	1182	159
0	1730524	1183	127
0	1731999	1184	138
0	1733526	1185	154
0	1735054	1186	155
0	1736489	1187	132
0	1737747	1188	119
0	1739190	1189	126
0	1740366	1190	116
0	1742060	1191	163
0	1743508	1192	131
0	1744854	1193	123
0	1746186	1194	125
0	1747513	1195	128
0	1748831	1196	135
0	1750108	1197	112
0	1751321	1198	116
0	1752797	1199	141
0	1754315	1200	146
0	1755590	1201	118
0	1757258	1202	153
0	1758781	1203	146
0	1760273	1204	155
0	1761670	1205	138
0	1763198	1206	151
0	1764328	1207	113
0	1765733	1208	124
0	1767232	1209	154
0	1768864	1210	136
0	1770197	1211	116
0	1771266	1212	92
0	1773180	1213	187
0	1774936	1214	171
0	1776573	1215	162
0	1778188	1216	158
0	1779646	1217	131
0	1781114	1218	157
0	1782287	1219	116
0	1783819	1220	156
0	1785133	1221	123
0	1786786	1222	152
0	1788230	1223	125
0	1789672	1224	137
0	1791331	1225	168
0	1792820	1226	144
0	1794501	1227	156
0	1796270	1228	180
0	1797452	1229	109
0	1798810	1230	130
0	1800190	1231	131
0	1801327	1232	100
0	1802934	1233	164
0	1804319	1234	114
0	1805437	1235	111
0	1806979	1236	169
0	1808388	1237	132
0	1809982	1238	165
0	1811424	1239	121
0	1812728	1240	134
0	1813803	1241	96
0	1814923	1242	119
0	1816602	1243	178
0	1817942	1244	135
0	1819249	1245	124
0	1820639	1246	153
0	1822041	1247	125
0	1823382	1248	124
0	1824961	1249	162
0	1826162	1250	119
0	1827889	1251	182
0	1829548	1252	140
0	1830964	1253	119
0	1832729	1254	156
0	1834418	1255	158
0	1835883	1256	134
0	1837591	1257	165
0	1838958	1258	126
0	1840630	1259	167
0	1842294	1260	132
0	1843854	1261	143
0	1845539	1262	160
0	1847083	1263	151
0	1848618	1264	152
0	1849976	1265	127
0	1851380	1266	143
0	1852852	1267	141
0	1854597	1268	174
0	1855786	1269	120
0	1857586	1270	188
0	1859301	1271	170
0	1860500	1272	104
0	1862159	1273	164
0	1863863	1274	175
0	1865392	1275	134
0	1866535	1276	110
0	1867918	1277	126
0	1869430	1278	157
0	1870796	1279	119
0	1872361	1280	131
0	1873919	1281	149
0	1875762	1282	186
0	1877453	1283	164
0	1878989	1284	151
0	1880624	1285	144
0	1882187	1286	148
0	1883480	1287	124
0	1884776	1288	125
0	1885892	1289	99
0	1887374	1290	138
0	1888641	1291	118
0	1890194	1292	152
0	1891575	1293	114
0	1893150	1294	140
0	1894651	1295	152
0	1896258	1296	146
0	1897614	1297	121
0	1899318	1298	161
0	1900885	1299	158
0	1902309	1300	128
0	1903996	1301	180
0	1905596	1302	135
0	1907159	1303	126
0	1908652	1304	140
0	1910291	1305	164
0	1911952	1306	150
0	1913218	1307	123
0	1914586	1308	117
0	1916100	1309	155
0	1917527	1310	133
0	1918502	1311	74
0	1919864	1312	125
0	1921291	1313	124
0	1922756	1314	140
0	1924186	1315	131
0	1925387	1316	106
0	1926733	1317	131
0	1928194	1318	142
0	1929503	1319	122
0	1930844	1320	125
0	1932505	1321	164
0	1933766	1322	116
0	1935389	1323	162
0	1937096	1324	168
0	1938525	1325	130
0	1939849	1326	127
0	1941316	1327	144
0	1942847	1328	150
0	1944413	1329	153
0	1945937	1330	150
0	1946920	1331	96
0	1948268	1332	143
0	1949919	1333	160
0	1951462	1334	138
0	1952871	1335	148
0	1954305	1336	137
0	1955726	1337	156
0	1956977	1338	100
0	1958322	1339	138
0	1960187	1340	185
0	1961699	1341	147
0	1963046	1342	130
0	1964144	1343	93
0	1965484	1344	131
0	1967064	1345	161
0	1968508	1346	117
0	1969771	1347	122
0	1971347	1348	149
0	1973127	1349	171
0	1974459	1350	112
0	1975909	1351	129
0	1977439	1352	141
0	1979265	1353	165
0	1981045	1354	173
0	1982515	1355	135
0	1983601	1356	99
0	1985418	1357	186
0	1986686	1358	111
0	1987797	1359	106
0	1989236	1360	145
0	1990623	1361	134
0	1991756	1362	104
0	1993197	1363	144
0	1994435	1364	127
0	1995799	1365	131
0	1997320	1366	134
0	1998800	1367	137
0	2000194	1368	131
0	2001624	1369	141
0	2003083	1370	147
0	2004891	1371	175
0	2006590	1372	166
0	2007958	1373	131
0	2009363	1374	128
0	2011087	1375	167
0	2012780	1376	162
0	2014423	1377	160
0	2015842	1378	132
0	2017378	1379	155
0	2019065	1380	173
0	2020157	1381	91
0	2021631	1382	143
0	2022811	1383	113
0	2024367	1384	183
0	2026103	1385	171
0	2027444	1386	136
0	2028760	1387	109
0	2030705	1388	188
0	2032196	1389	142
0	2033408	1390	122
0	2034872	1391	131
0	2036370	1392	159
0	2037821	1393	142
0	2039123	1394	127
0	2040391	1395	109
0	2041708	1396	124
0	2043094	1397	107
0	2044518	1398	145
0	2045755	1399	122
0	2047129	1400	120
0	2048832	1401	154
0	2050638	1402	187
0	2052264	1403	159
0	2053562	1404	127
0	2054955	1405	132
0	2056394	1406	126
0	2057524	1407	99
0	2059162	1408	165
0	2060690	1409	141
0	2062408	1410	166
0	2063567	1411	104
0	2065143	1412	157
0	2066799	1413	173
0	2068332	1414	152
0	2069756	1415	141
0	2071430	1416	155
0	2073016	1417	169
0	2074488	1418	147
0	2075936	1419	121
0	2077758	1420	180
0	2079047	1421	126
0	2080550	1422	148
0	2081877	1423	120
0	2083188	1424	108
0	2084902	1425	183
0	2086435	1426	130
0	2087838	1427	144
0	2088998	1428	115
0	2090385	1429	138
0	2091908	1430	141
0	2093229	1431	116
0	2094340	1432	98
0	2095775	1433	146
0	2097567	1434	181
0	2098688	1435	108
0	2100229	1436	160
0	2101668	1437	134
0	2103023	1438	146
0	2104545	1439	155
0	2105825	1440	110
0	2107454	1441	154
0	2109092	1442	175
0	2110459	1443	120
0	2111999	1444	149
0	2113387	1445	137
0	2114689	1446	123
0	2116172	1447	158
0	2117294	1448	95
0	2118886	1449	147
0	2120330	1450	132
0	2121564	1451	115
0	2122848	1452	121
0	2124289	1453	128
0	2125750	1454	136
0	2127435	1455	190
0	2128691	1456	123
0	2130074	1457	122
0	2131624	1458	139
0	2133099	1459	130
0	2134327	1460	120
0	2135630	1461	112
0	2136992	1462	121
0	2138294	1463	123
0	2139826	1464	143
0	2141093	1465	124
0	2142926	1466	180
0	2144175	1467	116
0	2145625	1468	127
0	2146963	1469	131
0	2148517	1470	162
0	2150347	1471	195
0	2151861	1472	143
0	2153471	1473	167
0	2154926	1474	126
0	2156234	1475	109
0	2157923	1476	172
0	2159477	1477	165
0	2160645	1478	127
0	2162218	1479	164
0	2163422	1480	124
0	2164919	1481	148
0	2166491	1482	151
0	2167972	1483	142
0	2169611	1484	142
0	2171051	1485	145
0	2172301	1486	111
0	2173580	1487	126
0	2175102	1488	135
0	2176167	1489	104
0	2177550	1490	121
0	2179145	1491	158
0	2180587	1492	131
0	2182005	1493	139
0	2183508	1494	146
0	2184898	1495	119
0	2186218	1496	117
0	2187693	1497	132
0	2189203	1498	129
0	2190509	1499	133
0	2191860	1500	123
0	2193329	1501	144
0	2194870	1502	142
0	2196315	1503	138
0	2197681	1504	123
0	2199248	1505	166
0	2200712	1506	125
0	2201878	1507	103
0	2203296	1508	145
0	2204966	1509	189
0	2206259	1510	115
0	2207727	1511	143
0	2209163	1512	141
0	2210823	1513	175
0	2212322	1514	142
0	2213487	1515	102
0	2214680	1516	136
0	2215918	1517	107
0	2217719	1518	174
0	2218693	1519	81
0	2220052	1520	129
0	2221488	1521	127
0	2223025	1522	140
0	2224262	1523	116
0	2225356	1524	103
0	2226859	1525	138
0	2228574	1526	170
0	2230404	1527	187
0	2231927	1528	138
0	2233607	1529	163
0	2235082	1530	141
0	2236485	1531	154
0	2237792	1532	112
0	2239248	1533	135
0	2240550	1534	113
0	2241968	1535	131
0	2243524	1536	147
0	2245332	1537	171
0	2246707	1538	114
0	2247874	1539	114
0	2249563	1540	167
0	2250972	1541	150
0	2252711	1542	166
0	2254240	1543	130
0	2255653	1544	134
0	2257010	1545	154
0	2258294	1546	105
0	2259562	1547	125
0	2261127	1548	146
0	2262598	1549	154
0	2264102	1550	166
0	2265546	1551	141
0	2267095	1552	144
0	2268441	1553	149
0	2269959	1554	159
0	2271264	1555	108
0	2272700	1556	127
0	2274017	1557	140
0	2275302	1558	114
0	2276885	1559	148
0	2278253	1560	142
0	2279627	1561	133
0	2281043	1562	137
0	2282613	1563	151
0	2284318	1564	170
0	2285957	1565	160
0	2287690	1566	166
0	2289031	1567	138
0	2290230	1568	110
0	2291416	1569	111
0	2292787	1570	145
0	2294337	1571	149
0	2295369	1572	95
0	2296671	1573	133
0	2298315	1574	165
0	2299670	1575	130
0	2301194	1576	131
0	2302848	1577	157
0	2304308	1578	119
0	2305906	1579	163
0	2307365	1580	137
0	2308997	1581	149
0	2310806	1582	180
0	2312597	1583	150
0	2313846	1584	124
0	2315559	1585	176
0	2316977	1586	139
0	2318571	1587	159
0	2319713	1588	91
0	2321173	1589	153
0	2322645	1590	156
0	2324354	1591	184
0	2326077	1592	158
0	2327631	1593	157
0	2329020	1594	130
0	2330386	1595	129
0	2331842	1596	151
0	2333367	1597	148
0	2334933	1598	145
0	2336147	1599	129
0	2337406	1600	113
0	2338496	1601	99
0	2339963	1602	158
0	2341785	1603	181
0	2343362	1604	138
0	2344792	1605	127
0	2346811	1606	190
0	2348040	1607	120
0	2349186	1608	111
0	2350511	1609	118
0	2352181	1610	172
0	2353443	1611	111
0	2355211	1612	169
0	2356667	1613	149
0	2358427	1614	193