version 3
run SimulationTime-390-20240108-13:24:00-15796
attr configname SimulationTime
attr datetime 20240108-13:24:00
attr datetimef 20240108-132400
attr experiment SimulationTime
attr inifile omnetpp.ini
attr iterationvars ""
attr iterationvarsd ""
attr iterationvarsf ""
attr measurement ""
attr network System
attr processid 15796
attr repetition 390
attr replication #390
attr resultdir results
attr runnumber 390
attr seedset 390
config **.cpu.rate 1000
config **.hd.rateProcessing 250
config **.webServer.web_server_rate 100
config **.p1 0.35
config **.p2 0.40
config network System
config num-rngs 4
config **.cpu.rng-0 0
config **.cpu.rng-1 1
config **.hd.rng-0 2
config **.webServer.rng-0 3
config repeat 500
config seed-set 390
config sim-time-limit 10000s
config **.client.numClients 40

vector 0 System.server.cpu requestCounterStat:vector ETV
attr recordingmode vector
attr source requestCounter
vector 1 System.server.hd utilizationHdStat:vector ETV
attr recordingmode vector
attr source utilizationHd
vector 2 System.server.cpu utilizationCpuStat:vector ETV
attr recordingmode vector
attr source utilizationCpu
vector 3 System.webServer utilizationWsStat:vector ETV
attr recordingmode vector
attr source utilizationWs
0	1872	1	173
0	3331	2	144
0	4703	3	123
0	5839	4	113
0	7175	5	121
0	8731	6	141
0	10449	7	167
0	11866	8	140
0	13341	9	138
0	14732	10	127
0	16481	11	178
0	17670	12	114
0	19319	13	170
0	20698	14	136
0	22023	15	110
0	23575	16	145
0	24930	17	118
0	26477	18	140
0	27870	19	128
0	29232	20	132
0	30951	21	158
0	32535	22	173
0	34172	23	158
0	35686	24	125
0	37094	25	145
0	38288	26	99
0	39657	27	132
0	41447	28	169
0	42651	29	103
0	44311	30	168
0	45870	31	176
0	47585	32	168
0	49257	33	165
0	50618	34	136
0	52282	35	169
0	53564	36	123
0	54843	37	124
0	56290	38	130
0	57973	39	160
0	59369	40	140
0	61194	41	184
0	62642	42	141
0	63843	43	106
0	65006	44	104
0	66361	45	140
0	67975	46	153
0	69317	47	119
0	70953	48	159
0	72482	49	132
0	74200	50	158
0	75961	51	170
0	77287	52	123
0	78797	53	171
0	80676	54	202
0	82259	55	146
0	83909	56	173
0	85297	57	123
0	86679	58	119
0	88249	59	135
0	89458	60	115
0	90654	61	95
0	92136	62	141
0	93189	63	84
0	94768	64	146
0	96233	65	136
0	97882	66	168
0	99385	67	134
0	100792	68	138
0	102419	69	172
0	103506	70	85
0	104630	71	93
0	106224	72	153
0	107655	73	150
0	108968	74	116
0	110558	75	151
0	111960	76	131
0	113521	77	136
0	114886	78	106
0	116341	79	144
0	117948	80	153
0	119745	81	152
0	121241	82	165
0	122635	83	139
0	124104	84	130
0	125419	85	102
0	126931	86	139
0	128306	87	138
0	129658	88	137
0	131158	89	147
0	132964	90	164
0	134722	91	165
0	135850	92	85
0	137142	93	125
0	138429	94	128
0	139590	95	88
0	141147	96	138
0	143076	97	186
0	144548	98	153
0	146165	99	154
0	147656	100	135
0	149270	101	157
0	150625	102	118
0	152021	103	129
0	153462	104	124
0	154933	105	138
0	156571	106	171
0	157956	107	142
0	159392	108	121
0	160714	109	115
0	162084	110	138
0	163719	111	146
0	165108	112	120
0	166305	113	102
0	167876	114	152
0	169388	115	157
0	170936	116	149
0	172283	117	110
0	173659	118	133
0	175078	119	126
0	176667	120	155
0	178128	121	150
0	179660	122	151
0	180928	123	117
0	181928	124	93
0	182939	125	86
0	184315	126	141
0	185458	127	104
0	187043	128	164
0	188396	129	122
0	189618	130	106
0	190959	131	126
0	192490	132	152
0	193823	133	120
0	195182	134	112
0	196551	135	120
0	198323	136	163
0	199455	137	91
0	201321	138	201
0	203014	139	152
0	204191	140	113
0	205218	141	112
0	206654	142	129
0	208168	143	133
0	209399	144	112
0	210802	145	154
0	212321	146	134
0	213684	147	122
0	215070	148	137
0	216609	149	168
0	218168	150	153
0	219660	151	149
0	221043	152	152
0	222371	153	127
0	224102	154	168
0	225439	155	136
0	226784	156	122
0	228191	157	138
0	229682	158	130
0	231117	159	138
0	232333	160	126
0	233691	161	121
0	235135	162	129
0	236611	163	153
0	237980	164	140
0	239451	165	138
0	240691	166	117
0	242168	167	144
0	243477	168	132
0	245286	169	190
0	247044	170	174
0	248517	171	132
0	249901	172	143
0	251356	173	152
0	252762	174	129
0	253881	175	90
0	255402	176	160
0	257084	177	171
0	258490	178	119
0	259693	179	110
0	261137	180	132
0	262541	181	133
0	263827	182	111
0	265256	183	140
0	266520	184	125
0	267667	185	110
0	269254	186	160
0	270609	187	138
0	272051	188	137
0	273592	189	166
0	275206	190	170
0	276403	191	114
0	277706	192	124
0	278907	193	104
0	280433	194	157
0	282168	195	148
0	283611	196	128
0	285119	197	145
0	286864	198	178
0	288433	199	166
0	289762	200	143
0	290932	201	111
0	292553	202	166
0	294015	203	125
0	295413	204	121
0	296868	205	132
0	298013	206	108
0	299230	207	116
0	300949	208	168
0	302312	209	122
0	303513	210	117
0	304978	211	132
0	306325	212	138
0	308061	213	179
0	309445	214	131
0	310542	215	86
0	311995	216	142
0	313441	217	113
0	314788	218	120
0	316646	219	171
0	318092	220	130
0	319642	221	151
0	321345	222	170
0	322877	223	151
0	324541	224	175
0	325806	225	118
0	327364	226	153
0	328604	227	113
0	330103	228	134
0	331591	229	141
0	332943	230	132
0	334201	231	115
0	335524	232	126
0	337032	233	125
0	338766	234	183
0	340023	235	118
0	341635	236	143
0	343017	237	137
0	344613	238	151
0	346040	239	146
0	347075	240	111
0	348578	241	132
0	350108	242	131
0	351549	243	144
0	352892	244	136
0	354274	245	141
0	355927	246	166
0	357162	247	124
0	358720	248	147
0	360349	249	180
0	361741	250	138
0	363405	251	163
0	364934	252	158
0	366517	253	146
0	368116	254	154
0	369482	255	121
0	370703	256	112
0	371856	257	96
0	373041	258	100
0	374683	259	153
0	375919	260	108
0	377209	261	113
0	378674	262	140
0	380051	263	126
0	381532	264	142
0	382862	265	133
0	384759	266	166
0	385975	267	109
0	387259	268	121
0	388826	269	152
0	390370	270	148
0	391792	271	125
0	393199	272	122
0	394765	273	147
0	396364	274	152
0	397936	275	153
0	399322	276	127
0	400545	277	120
0	401907	278	123
0	403091	279	117
0	404744	280	163
0	406032	281	115
0	407211	282	112
0	408685	283	139
0	410254	284	152
0	411670	285	131
0	413265	286	160
0	414679	287	123
0	416005	288	133
0	417449	289	127
0	419151	290	168
0	420365	291	93
0	421582	292	124
0	423315	293	166
0	425246	294	164
0	426545	295	112
0	428235	296	159
0	429766	297	160
0	431402	298	161
0	433019	299	160
0	434579	300	152
0	436029	301	135
0	437436	302	140
0	438735	303	146
0	439838	304	112
0	441380	305	139
0	442777	306	134
0	444192	307	136
0	445622	308	131
0	446868	309	121
0	448408	310	134
0	450041	311	156
0	451171	312	93
0	452643	313	153
0	453773	314	109
0	455344	315	140
0	456384	316	107
0	457605	317	122
0	459006	318	126
0	460612	319	151
0	461893	320	109
0	463495	321	157
0	464746	322	126
0	466203	323	144
0	467739	324	155
0	469086	325	136
0	470680	326	159
0	472218	327	135
0	473679	328	120
0	474954	329	118
0	476193	330	129
0	477673	331	133
0	479230	332	136
0	480410	333	125
0	481803	334	144
0	483282	335	142
0	484450	336	97
0	485830	337	129
0	487261	338	138
0	488884	339	178
0	489909	340	91
0	491353	341	129
0	493028	342	162
0	494607	343	168
0	496116	344	144
0	497238	345	109
0	498614	346	129
0	500269	347	158
0	501892	348	138
0	503176	349	139
0	504704	350	134
0	505841	351	102
0	507120	352	120
0	508920	353	177
0	510496	354	157
0	511964	355	141
0	513193	356	92
0	514619	357	143
0	516186	358	152
0	517659	359	134
0	519141	360	136
0	520594	361	138
0	522059	362	140
0	523285	363	103
0	524558	364	126
0	525968	365	131
0	527419	366	132
0	528706	367	134
0	530068	368	131
0	531505	369	134
0	532953	370	128
0	534549	371	149
0	535944	372	118
0	537546	373	173
0	538909	374	128
0	540487	375	151
0	542133	376	157
0	543669	377	159
0	545359	378	189
0	546638	379	128
0	547967	380	127
0	549447	381	135
0	550893	382	119
0	552062	383	128
0	553372	384	119
0	554964	385	145
0	556010	386	95
0	557654	387	145
0	558846	388	115
0	560507	389	154
0	561759	390	126
0	563134	391	134
0	564312	392	115
0	565954	393	155
0	567286	394	119
0	568427	395	90
0	570216	396	174
0	571554	397	123
0	573215	398	160
0	574621	399	123
0	576168	400	139
0	577882	401	149
0	578966	402	109
0	580254	403	117
0	582129	404	190
0	583465	405	121
0	585160	406	152
0	586324	407	105
0	587882	408	153
0	589158	409	117
0	590632	410	152
0	592181	411	158
0	593493	412	129
0	594828	413	130
0	596503	414	182
0	597975	415	149
0	599317	416	135
0	600588	417	114
0	602065	418	120
0	603325	419	113
0	604962	420	167
0	606441	421	144
0	607980	422	156
0	609402	423	155
0	610978	424	149
0	612907	425	190
0	614096	426	112
0	615491	427	122
0	617037	428	145
0	618387	429	129
0	619427	430	102
0	620946	431	164
0	622493	432	148
0	624154	433	168
0	625424	434	105
0	627007	435	140
0	628805	436	173
0	630523	437	171
0	631714	438	106
0	632965	439	116
0	634270	440	117
0	635717	441	140
0	637198	442	148
0	638713	443	144
0	640369	444	159
0	641639	445	107
0	643040	446	136
0	644437	447	132
0	645791	448	129
0	647140	449	138
0	648409	450	131
0	649444	451	100
0	651049	452	148
0	652510	453	132
0	653732	454	109
0	655143	455	140
0	656533	456	139
0	657980	457	140
0	659746	458	189
0	661078	459	127
0	662414	460	124
0	663729	461	114
0	665174	462	136
0	666711	463	156
0	668297	464	157
0	669747	465	129
0	671069	466	123
0	672587	467	155
0	673970	468	138
0	675331	469	124
0	677171	470	184
0	678771	471	159
0	680004	472	110
0	681684	473	165
0	683121	474	144
0	684793	475	173
0	686520	476	154
0	688007	477	136
0	689336	478	126
0	690846	479	159
0	692192	480	124
0	693687	481	144
0	695210	482	158
0	696615	483	134
0	697951	484	123
0	699464	485	148
0	701242	486	183
0	702331	487	108
0	703987	488	153
0	705586	489	156
0	706913	490	131
0	708555	491	157
0	710186	492	158
0	711441	493	116
0	712910	494	132
0	713939	495	104
0	715456	496	152
0	716819	497	110
0	718058	498	114
0	719621	499	150
0	721021	500	150
0	722506	501	128
0	724003	502	150
0	725503	503	129
0	727071	504	157
0	728417	505	131
0	729947	506	155
0	731623	507	161
0	732965	508	133
0	734284	509	124
0	735557	510	119
0	737097	511	153
0	738489	512	127
0	739912	513	150
0	741407	514	146
0	742531	515	115
0	743944	516	160
0	745511	517	142
0	746816	518	128
0	748463	519	162
0	749770	520	121
0	751307	521	132
0	752823	522	141
0	754476	523	172
0	756022	524	147
0	757424	525	127
0	758894	526	141
0	760443	527	142
0	762010	528	158
0	762886	529	77
0	764505	530	145
0	765681	531	109
0	767273	532	171
0	768830	533	146
0	770204	534	107
0	771481	535	142
0	772959	536	125
0	774111	537	109
0	775655	538	157
0	777085	539	135
0	778317	540	104
0	779636	541	126
0	781053	542	142
0	782390	543	142
0	783921	544	134
0	785478	545	148
0	786922	546	143
0	788477	547	148
0	790169	548	161
0	791431	549	107
0	792582	550	99
0	794178	551	151
0	796008	552	167
0	797710	553	163
0	799304	554	153
0	801024	555	175
0	802810	556	183
0	804361	557	150
0	805941	558	141
0	807262	559	128
0	808806	560	144
0	810469	561	162
0	811961	562	137
0	813614	563	146
0	815167	564	142
0	816676	565	136
0	818093	566	136
0	819682	567	164
0	821160	568	143
0	822920	569	173
0	824367	570	137
0	826005	571	155
0	827120	572	106
0	828552	573	149
0	829974	574	143
0	831891	575	192
0	833172	576	100
0	834508	577	133
0	835921	578	148
0	837712	579	168
0	839150	580	142
0	840795	581	170
0	842256	582	144
0	843626	583	143
0	845217	584	150
0	846849	585	181
0	848182	586	148
0	849560	587	131
0	851377	588	188
0	852664	589	138
0	854097	590	131
0	855517	591	119
0	856850	592	124
0	858104	593	121
0	859451	594	144
0	860390	595	88
0	861840	596	135
0	863091	597	130
0	864757	598	167
0	866075	599	131
0	867586	600	147
0	868707	601	122
0	870159	602	139
0	872150	603	204
0	873447	604	122
0	874558	605	106
0	876146	606	141
0	877794	607	169
0	879541	608	164
0	881108	609	154
0	882594	610	154
0	884448	611	183
0	885827	612	130
0	887395	613	141
0	888973	614	155
0	890493	615	129
0	892058	616	148
0	893441	617	138
0	894755	618	121
0	896044	619	108
0	897634	620	170
0	898831	621	108
0	900062	622	110
0	901477	623	152
0	903081	624	157
0	904713	625	161
0	906108	626	130
0	907585	627	152
0	908995	628	137
0	910666	629	144
0	911944	630	114
0	913582	631	135
0	915135	632	148
0	916479	633	145
0	917801	634	115
0	919184	635	148
0	920260	636	95
0	921875	637	162
0	923397	638	163
0	924915	639	151
0	926183	640	120
0	927716	641	126
0	929305	642	164
0	930633	643	127
0	932135	644	135
0	933456	645	120
0	934788	646	139
0	936631	647	190
0	937914	648	132
0	939021	649	106
0	940517	650	132
0	941848	651	122
0	943344	652	115
0	945066	653	167
0	946734	654	151
0	948292	655	143
0	949835	656	162
0	951448	657	160
0	953344	658	203
0	954574	659	109
0	955805	660	141
0	957297	661	133
0	958716	662	126
0	960128	663	125
0	961465	664	132
0	962646	665	120
0	964012	666	141
0	965265	667	132
0	966731	668	145
0	968241	669	139
0	969560	670	121
0	970904	671	109
0	972430	672	147
0	974173	673	166
0	975438	674	114
0	976763	675	114
0	978757	676	203
0	980386	677	162
0	982051	678	142
0	983653	679	163
0	985304	680	189
0	986648	681	129
0	988137	682	140
0	989696	683	162
0	991221	684	140
0	992866	685	164
0	994481	686	146
0	995805	687	105
0	997075	688	107
0	998077	689	95
0	999806	690	169
0	1001242	691	137
0	1002739	692	142
0	1004170	693	138
0	1005421	694	118
0	1006777	695	129
0	1008122	696	118
0	1009727	697	152
0	1011033	698	145
0	1012536	699	132
0	1013926	700	136
0	1015210	701	129
0	1016378	702	105
0	1017927	703	164
0	1019578	704	146
0	1021033	705	138
0	1022282	706	130
0	1023924	707	179
0	1025369	708	162
0	1026448	709	98
0	1028043	710	153
0	1029586	711	158
0	1030700	712	95
0	1032077	713	144
0	1033789	714	161
0	1035088	715	116
0	1036696	716	159
0	1038214	717	151
0	1039935	718	166
0	1041410	719	132
0	1042883	720	141
0	1043832	721	82
0	1045200	722	153
0	1046645	723	140
0	1048159	724	151
0	1049796	725	148
0	1051152	726	117
0	1052662	727	147
0	1054457	728	174
0	1055896	729	138
0	1057418	730	152
0	1058910	731	153
0	1060115	732	134
0	1061507	733	129
0	1062976	734	134
0	1064465	735	126
0	1065782	736	104
0	1067271	737	144
0	1068601	738	125
0	1069760	739	110
0	1071396	740	162
0	1072611	741	118
0	1074051	742	141
0	1075641	743	163
0	1077061	744	133
0	1078546	745	144
0	1079983	746	144
0	1081392	747	124
0	1083409	748	218
0	1084615	749	101
0	1086051	750	136
0	1087331	751	131
0	1088851	752	161
0	1090100	753	124
0	1091847	754	168
0	1093218	755	122
0	1094411	756	114
0	1095716	757	126
0	1097566	758	183
0	1098952	759	133
0	1100479	760	163
0	1101748	761	108
0	1102994	762	127
0	1104347	763	124
0	1106124	764	188
0	1107615	765	148
0	1109084	766	138
0	1110655	767	144
0	1111661	768	81
0	1112784	769	98
0	1113944	770	92
0	1115537	771	164
0	1116912	772	134
0	1118394	773	153
0	1119936	774	145
0	1121613	775	164
0	1122975	776	127
0	1124483	777	153
0	1125706	778	110
0	1127528	779	177
0	1129127	780	181
0	1130696	781	142
0	1132014	782	135
0	1133493	783	128
0	1134916	784	144
0	1136119	785	98
0	1137190	786	98
0	1138803	787	156
0	1140226	788	138
0	1141476	789	99
0	1142962	790	146
0	1144062	791	75
0	1145715	792	142
0	1147062	793	124
0	1148478	794	125
0	1149725	795	120
0	1150919	796	103
0	1152403	797	137
0	1154097	798	177
0	1155486	799	126
0	1156635	800	103
0	1158222	801	168
0	1159778	802	173
0	1161100	803	137
0	1162142	804	97
0	1163722	805	159
0	1165227	806	136
0	1166955	807	177
0	1168508	808	144
0	1169981	809	128
0	1171365	810	112
0	1172802	811	136
0	1174267	812	152
0	1175871	813	149
0	1177477	814	143
0	1178611	815	107
0	1180252	816	156
0	1181865	817	138
0	1183148	818	124
0	1184602	819	147
0	1186097	820	157
0	1187425	821	135
0	1188691	822	121
0	1190442	823	168
0	1192021	824	140
0	1193409	825	121
0	1194634	826	114
0	1196000	827	129
0	1197440	828	137
0	1198705	829	114
0	1199883	830	128
0	1201124	831	108
0	1202389	832	112
0	1203858	833	128
0	1205266	834	139
0	1206369	835	116
0	1208098	836	160
0	1209842	837	161
0	1211057	838	126
0	1212686	839	148
0	1214217	840	145
0	1215576	841	134
0	1217175	842	136
0	1218776	843	158
0	1220403	844	148
0	1221729	845	129
0	1223212	846	144
0	1224633	847	126
0	1225921	848	117
0	1227474	849	128
0	1228682	850	120
0	1230068	851	125
0	1231438	852	135
0	1232940	853	145
0	1234180	854	115
0	1235940	855	187
0	1237416	856	143
0	1238933	857	146
0	1240559	858	179
0	1242081	859	135
0	1243487	860	132
0	1245147	861	159
0	1246560	862	136
0	1247935	863	126
0	1249389	864	135
0	1250688	865	110
0	1252216	866	137
0	1253756	867	179
0	1255081	868	122
0	1256659	869	153
0	1257952	870	133
0	1259665	871	142
0	1260913	872	111
0	1262292	873	132
0	1263906	874	141
0	1265469	875	160
0	1267021	876	143
0	1268108	877	102
0	1269644	878	147
0	1270683	879	100
0	1272417	880	198
0	1274056	881	174
0	1275325	882	124
0	1277051	883	153
0	1278483	884	135
0	1279728	885	132
0	1280948	886	101
0	1282346	887	143
0	1283830	888	149
0	1285194	889	129
0	1286733	890	147
0	1288524	891	184
0	1290109	892	148
0	1291316	893	102
0	1292913	894	148
0	1294441	895	161
0	1295831	896	127
0	1297027	897	101
0	1298897	898	173
0	1300306	899	136
0	1301442	900	98
0	1303085	901	160
0	1304714	902	170
0	1306496	903	197
0	1308132	904	151
0	1309324	905	105
0	1310949	906	152
0	1312364	907	132
0	1314099	908	160
0	1316078	909	206
0	1317579	910	135
0	1318885	911	123
0	1320463	912	159
0	1321759	913	117
0	1322978	914	106
0	1324527	915	150
0	1326410	916	172
0	1327942	917	169
0	1329684	918	171
0	1330989	919	130
0	1332224	920	119
0	1333717	921	136
0	1335166	922	160
0	1336445	923	118
0	1338099	924	159
0	1339409	925	103
0	1340624	926	126
0	1342040	927	139
0	1343259	928	120
0	1344269	929	93
0	1345602	930	125
0	1347135	931	136
0	1348631	932	133
0	1350373	933	191
0	1351834	934	148
0	1353012	935	111
0	1354538	936	151
0	1356025	937	160
0	1357829	938	175
0	1359313	939	137
0	1360444	940	105
0	1361643	941	120
0	1363091	942	125
0	1364807	943	175
0	1366207	944	133
0	1367699	945	141
0	1369031	946	125
0	1370758	947	210
0	1372650	948	191
0	1374002	949	135
0	1375172	950	90
0	1376268	951	99
0	1377512	952	131
0	1378913	953	152
0	1380314	954	136
0	1381767	955	136
0	1383166	956	128
0	1384974	957	181
0	1386064	958	81
0	1387740	959	149
0	1389003	960	115
0	1390264	961	132
0	1391599	962	112
0	1392973	963	139
0	1394441	964	149
0	1395914	965	144
0	1397447	966	164
0	1399062	967	158
0	1400429	968	122
0	1401829	969	137
0	1403286	970	139
0	1405014	971	159
0	1406391	972	130
0	1407847	973	133
0	1409676	974	202
0	1410922	975	113
0	1412027	976	76
0	1413333	977	111
0	1414474	978	104
0	1416097	979	170
0	1417703	980	162
0	1418922	981	120
0	1420342	982	139
0	1421737	983	130
0	1422932	984	110
0	1424360	985	137
0	1425822	986	111
0	1427012	987	101
0	1428794	988	171
0	1430020	989	113
0	1431422	990	136
0	1432724	991	133
0	1434340	992	153
0	1435634	993	123
0	1437171	994	124
0	1438601	995	129
0	1440562	996	194
0	1441866	997	121
0	1443244	998	117
0	1444906	999	165
0	1446675	1000	157
0	1448036	1001	124
0	1449399	1002	108
0	1450747	1003	133
0	1452486	1004	162
0	1453970	1005	151
0	1455139	1006	104
0	1456758	1007	164
0	1458112	1008	115
0	1459635	1009	164
0	1461426	1010	175
0	1463114	1011	177
0	1464363	1012	116
0	1465850	1013	136
0	1467580	1014	173
0	1468885	1015	120
0	1470471	1016	153
0	1471949	1017	135
0	1473481	1018	139
0	1475122	1019	166
0	1476806	1020	158
0	1478408	1021	151
0	1479802	1022	143
0	1481654	1023	173
0	1482991	1024	124
0	1484357	1025	113
0	1485758	1026	126
0	1487259	1027	154
0	1488766	1028	152
0	1490059	1029	132
0	1491493	1030	138
0	1493071	1031	161
0	1494561	1032	151
0	1495891	1033	137
0	1497483	1034	163
0	1498753	1035	109
0	1499755	1036	95
0	1501372	1037	148
0	1502836	1038	125
0	1503810	1039	79
0	1505216	1040	154
0	1506648	1041	133
0	1508087	1042	130
0	1509638	1043	140
0	1510864	1044	113
0	1512196	1045	131
0	1513852	1046	171
0	1515151	1047	136
0	1516728	1048	182
0	1517946	1049	115
0	1519733	1050	195
0	1521272	1051	120
0	1522805	1052	150
0	1524310	1053	158
0	1525939	1054	170
0	1527360	1055	142
0	1528908	1056	141
0	1530738	1057	161
0	1532318	1058	143
0	1533847	1059	140
0	1535265	1060	134
0	1536739	1061	139
0	1538129	1062	135
0	1539577	1063	125
0	1540878	1064	122
0	1542370	1065	163
0	1543553	1066	106
0	1544987	1067	139
0	1546378	1068	140
0	1548305	1069	190
0	1549984	1070	159
0	1551486	1071	139
0	1552690	1072	115
0	1554118	1073	151
0	1555687	1074	156
0	1557151	1075	133
0	1558707	1076	145
0	1560600	1077	190
0	1562080	1078	135
0	1563348	1079	117
0	1564869	1080	151
0	1566107	1081	115
0	1567368	1082	98
0	1568979	1083	150
0	1570656	1084	170
0	1572113	1085	124
0	1573657	1086	143
0	1574898	1087	124
0	1575993	1088	92
0	1577341	1089	117
0	1578802	1090	157
0	1580398	1091	155
0	1581808	1092	139
0	1583473	1093	176
0	1584790	1094	126
0	1586239	1095	144
0	1587481	1096	113
0	1588886	1097	134
0	1590443	1098	166
0	1592159	1099	169
0	1593770	1100	169
0	1595297	1101	154
0	1596619	1102	127
0	1598178	1103	158
0	1599815	1104	162
0	1601664	1105	176
0	1603176	1106	151
0	1604422	1107	105
0	1605675	1108	126
0	1607578	1109	182
0	1609040	1110	146
0	1610292	1111	109
0	1611527	1112	128
0	1613119	1113	141
0	1614768	1114	158
0	1616766	1115	169
0	1618363	1116	142
0	1619896	1117	148
0	1621307	1118	134
0	1622678	1119	144
0	1624445	1120	183
0	1625842	1121	134
0	1627272	1122	127
0	1628860	1123	153
0	1630175	1124	126
0	1631298	1125	108
0	1632656	1126	127
0	1634435	1127	154
0	1635907	1128	137
0	1637216	1129	136
0	1638540	1130	128
0	1639934	1131	135
0	1641463	1132	138
0	1642989	1133	141
0	1644728	1134	162
0	1645907	1135	114
0	1647015	1136	107
0	1648485	1137	141
0	1650092	1138	170
0	1651256	1139	113
0	1652843	1140	147
0	1654361	1141	155
0	1655986	1142	142
0	1657246	1143	145
0	1658507	1144	118
0	1660081	1145	145
0	1661739	1146	151
0	1662967	1147	117
0	1664566	1148	134
0	1665855	1149	120
0	1667337	1150	140
0	1668944	1151	158
0	1670553	1152	154
0	1672136	1153	146
0	1673712	1154	153
0	1675236	1155	133
0	1676658	1156	127
0	1678171	1157	134
0	1679352	1158	122
0	1681055	1159	166
0	1682421	1160	134
0	1683567	1161	115
0	1684776	1162	116
0	1686288	1163	141
0	1687732	1164	141
0	1688809	1165	108
0	1690433	1166	167
0	1691728	1167	128
0	1693230	1168	149
0	1694608	1169	141
0	1696033	1170	135
0	1697564	1171	162
0	1699053	1172	146
0	1700424	1173	132
0	1702019	1174	166
0	1703272	1175	124
0	1705024	1176	185
0	1706875	1177	196
0	1708674	1178	186
0	1710297	1179	168
0	1711926	1180	169
0	1713250	1181	143
0	1714479	1182	120
0	1715563	1183	97
0	1717138	1184	158
0	1718799	1185	154
0	1720128	1186	126
0	1721435	1187	130
0	1723079	1188	149
0	1724651	1189	165
0	1725924	1190	119
0	1727055	1191	86
0	1728536	1192	160
0	1729513	1193	104
0	1730974	1194	120
0	1732847	1195	182
0	1734604	1196	188
0	1736140	1197	127
0	1737430	1198	115
0	1738848	1199	139
0	1740155	1200	135
0	1741732	1201	142
0	1743724	1202	193
0	1745244	1203	123
0	1746967	1204	140
0	1748407	1205	129
0	1749998	1206	150
0	1751362	1207	141
0	1752379	1208	88
0	1753862	1209	164
0	1755518	1210	170
0	1757038	1211	137
0	1758183	1212	116
0	1759531	1213	127
0	1760776	1214	116
0	1762117	1215	122
0	1763584	1216	142
0	1764985	1217	120
0	1766167	1218	111
0	1767408	1219	132
0	1768741	1220	121
0	1770031	1221	109
0	1771668	1222	134
0	1773164	1223	135
0	1774644	1224	153
0	1775996	1225	121
0	1777263	1226	126
0	1778982	1227	154
0	1780906	1228	197
0	1782302	1229	143
0	1784060	1230	172
0	1785620	1231	143
0	1786906	1232	133
0	1788166	1233	125
0	1789654	1234	143
0	1791386	1235	167
0	1792596	1236	115
0	1794158	1237	155
0	1795653	1238	150
0	1797031	1239	121
0	1798617	1240	158
0	1800095	1241	135
0	1801421	1242	125
0	1802725	1243	109
0	1803969	1244	109
0	1805520	1245	138
0	1806905	1246	128
0	1808123	1247	113
0	1809926	1248	172
0	1811133	1249	94
0	1813005	1250	186
0	1814358	1251	122
0	1816140	1252	169
0	1817439	1253	116
0	1818731	1254	117
0	1820521	1255	167
0	1822053	1256	145
0	1823829	1257	177
0	1825282	1258	126
0	1826687	1259	138
0	1828184	1260	153
0	1829957	1261	166
0	1831386	1262	152
0	1832597	1263	102
0	1834236	1264	168
0	1835962	1265	169
0	1837553	1266	160
0	1839087	1267	149
0	1840369	1268	135
0	1841795	1269	139
0	1843231	1270	120
0	1844690	1271	150
0	1846047	1272	124
0	1847695	1273	177
0	1849131	1274	117
0	1850932	1275	152
0	1852629	1276	152
0	1854275	1277	163
0	1855831	1278	145
0	1857283	1279	149
0	1858871	1280	174
0	1860534	1281	164
0	1861956	1282	147
0	1863401	1283	140
0	1865229	1284	197
0	1866630	1285	136
0	1868157	1286	148
0	1869825	1287	179
0	1871581	1288	173
0	1872771	1289	105
0	1874305	1290	160
0	1875774	1291	162
0	1877091	1292	104
0	1878323	1293	107
0	1879771	1294	167
0	1881264	1295	156
0	1882591	1296	114
0	1884050	1297	114
0	1885679	1298	154
0	1886954	1299	130
0	1888495	1300	159
0	1890273	1301	171
0	1891838	1302	156
0	1893105	1303	110
0	1894306	1304	110
0	1895789	1305	152
0	1897423	1306	161
0	1898896	1307	132
0	1900410	1308	141
0	1901832	1309	127
0	1903373	1310	147
0	1905110	1311	164
0	1906324	1312	109
0	1908078	1313	193
0	1909441	1314	126
0	1910676	1315	100
0	1912103	1316	120
0	1913414	1317	118
0	1914623	1318	112
0	1915906	1319	118
0	1917293	1320	105
0	1919016	1321	170
0	1920482	1322	143
0	1922240	1323	179
0	1923706	1324	163
0	1925321	1325	160
0	1927336	1326	198
0	1928979	1327	158
0	1930366	1328	140
0	1931601	1329	122
0	1932882	1330	137
0	1934488	1331	147
0	1935760	1332	119
0	1937386	1333	155
0	1939036	1334	171
0	1940236	1335	125
0	1941912	1336	153
0	1943348	1337	121
0	1944757	1338	134
0	1946363	1339	165
0	1947723	1340	114
0	1949078	1341	128
0	1950420	1342	105
0	1952104	1343	175
0	1953446	1344	103
0	1954692	1345	111
0	1956307	1346	152
0	1957853	1347	149
0	1959293	1348	129
0	1960752	1349	134
0	1961923	1350	103
0	1963555	1351	159
0	1964705	1352	115
0	1966018	1353	126
0	1967561	1354	140
0	1969170	1355	138
0	1970561	1356	128
0	1972021	1357	147
0	1973326	1358	130
0	1974949	1359	174
0	1976700	1360	165
0	1978430	1361	171
0	1979683	1362	120
0	1981322	1363	166
0	1982338	1364	77
0	1983668	1365	135
0	1985021	1366	120
0	1986626	1367	166
0	1988208	1368	153
0	1989726	1369	135
0	1991299	1370	163
0	1992457	1371	111
0	1994201	1372	159
0	1995429	1373	99
0	1997174	1374	170
0	1998920	1375	177
0	2000597	1376	172
0	2001995	1377	125
0	2003958	1378	208
0	2005438	1379	147
0	2007254	1380	180
0	2008914	1381	151
0	2010428	1382	133
0	2012042	1383	183
0	2013219	1384	88
0	2014844	1385	146
0	2016145	1386	136
0	2017315	1387	111
0	2018528	1388	102
0	2020053	1389	140
0	2021607	1390	158
0	2023118	1391	148
0	2024451	1392	128
0	2025751	1393	123
0	2027642	1394	184
0	2029061	1395	122
0	2030356	1396	130
0	2031640	1397	119
0	2033213	1398	138
0	2034806	1399	148
0	2036083	1400	111
0	2037459	1401	149
0	2039230	1402	166
0	2040715	1403	126
0	2041955	1404	111
0	2043312	1405	130
0	2044663	1406	116
0	2046277	1407	155
0	2047730	1408	140
0	2049227	1409	146
0	2050669	1410	156
0	2051977	1411	143
0	2053213	1412	121
0	2054478	1413	114
0	2055871	1414	148
0	2057174	1415	116
0	2058351	1416	110
0	2059963	1417	163
0	2061566	1418	144
0	2063175	1419	150
0	2064840	1420	149
0	2066656	1421	181
0	2068193	1422	152
0	2069593	1423	127
0	2071245	1424	155
0	2072572	1425	110
0	2074214	1426	143
0	2075949	1427	164
0	2077182	1428	110
0	2078875	1429	192
0	2080028	1430	95
0	2081346	1431	111
0	2082555	1432	104
0	2083963	1433	141
0	2085240	1434	108
0	2086370	1435	99
0	2087802	1436	137
0	2089141	1437	130
0	2090761	1438	157
0	2091930	1439	104
0	2093659	1440	157
0	2095262	1441	144
0	2096564	1442	123
0	2098093	1443	158
0	2099791	1444	161
0	2101131	1445	125
0	2102941	1446	193
0	2104713	1447	171
0	2106577	1448	201
0	2108361	1449	169
0	2109885	1450	154
0	2111475	1451	145
0	2112810	1452	126
0	2114482	1453	173
0	2115884	1454	131
0	2117316	1455	111
0	2118470	1456	97
0	2119792	1457	123
0	2121050	1458	119
0	2122552	1459	135
0	2124383	1460	185
0	2125684	1461	132
0	2127418	1462	175
0	2128855	1463	138
0	2130530	1464	166
0	2131917	1465	128
0	2133219	1466	129
0	2134548	1467	114
0	2136160	1468	179
0	2137998	1469	181
0	2139632	1470	158
0	2141219	1471	162
0	2142420	1472	108
0	2144363	1473	206
0	2145987	1474	171
0	2147450	1475	144
0	2148997	1476	158
0	2150483	1477	151
0	2151701	1478	125
0	2153070	1479	116
0	2154442	1480	132
0	2156125	1481	164
0	2157672	1482	134
0	2159176	1483	157
0	2160590	1484	123
0	2161935	1485	124
0	2163365	1486	143
0	2164878	1487	132
0	2166413	1488	142
0	2167609	1489	121
0	2169098	1490	127
0	2170455	1491	118
0	2171788	1492	118
0	2173386	1493	163
0	2174964	1494	135
0	2176476	1495	137
0	2177598	1496	103
0	2178882	1497	115
0	2180227	1498	106
0	2181755	1499	153
0	2183041	1500	130
0	2184369	1501	123
0	2185656	1502	122
0	2187137	1503	146
0	2188713	1504	153
0	2190227	1505	137
0	2191555	1506	111
0	2192821	1507	115
0	2194461	1508	161
0	2195913	1509	143
0	2197249	1510	138
0	2198680	1511	130
0	2199977	1512	120
0	2201346	1513	124
0	2202727	1514	132
0	2204175	1515	157
0	2205867	1516	165
0	2207488	1517	180
0	2208750	1518	119
0	2210143	1519	128
0	2211474	1520	109
0	2212856	1521	135
0	2214278	1522	135
0	2215868	1523	155
0	2217463	1524	158
0	2218848	1525	136
0	2220175	1526	118
0	2221878	1527	166
0	2223597	1528	182
0	2224961	1529	105
0	2226363	1530	114
0	2227839	1531	149
0	2229435	1532	143
0	2230925	1533	133
0	2232390	1534	146
0	2233982	1535	159
0	2235597	1536	146
0	2237327	1537	161
0	2238769	1538	139
0	2239994	1539	102
0	2241251	1540	131
0	2242737	1541	135
0	2244106	1542	140
0	2245459	1543	108
0	2247049	1544	163
0	2248722	1545	138
0	2250174	1546	151
0	2251708	1547	135
0	2253221	1548	136
0	2254759	1549	149
0	2256269	1550	150
0	2258084	1551	172
0	2259863	1552	184
0	2261385	1553	157
0	2262953	1554	153
0	2264194	1555	120
0	2265900	1556	161
0	2267194	1557	117
0	2268698	1558	137
0	2270131	1559	130
0	2271964	1560	181
0	2273383	1561	154
0	2274975	1562	163
0	2276891	1563	197
0	2278227	1564	119
0	2279641	1565	123
0	2281210	1566	174
0	2282625	1567	148
0	2284257	1568	163
0	2285774	1569	154
0	2287076	1570	120
0	2288790	1571	169
0	2289963	1572	102
0	2291565	1573	157
0	2292988	1574	150
0	2294644	1575	161
0	2295891	1576	122
0	2297488	1577	160
0	2298888	1578	129
0	2300237	1579	128
0	2301230	1580	95
0	2302777	1581	154
0	2304402	1582	126
0	2305867	1583	148
0	2307151	1584	127
0	2308651	1585	157
0	2309815	1586	121
0	2311044	1587	108
0	2312728	1588	149
0	2314029	1589	136
0	2315474	1590	147
0	2316940	1591	133
0	2318119	1592	100
0	2319776	1593	160
0	2321430	1594	171
0	2322921	1595	146
0	2324393	1596	149
0	2325836	1597	148
0	2327235	1598	138
0	2329157	1599	201
0	2330615	1600	134
0	2331969	1601	137
0	2333561	1602	141
0	2334843	1603	125
0	2336503	1604	147
0	2338429	1605	173
0	2339700	1606	126
0	2341198	1607	131
0	2342622	1608	153
0	2344270	1609	141
0	2345456	1610	112
0	2346733	1611	122
0	2348392	1612	166
0	2350260	1613	185
0	2351619	1614	130
0	2353217	1615	163