version 3
run SimulationTime-155-20240107-16:16:49-15452
attr configname SimulationTime
attr datetime 20240107-16:16:49
attr datetimef 20240107-161649
attr experiment SimulationTime
attr inifile omnetpp.ini
attr iterationvars ""
attr iterationvarsd ""
attr iterationvarsf ""
attr measurement ""
attr network System
attr processid 15452
attr repetition 155
attr replication #155
attr resultdir results
attr runnumber 155
attr seedset 155
config **.cpu.rate 1000
config **.hd.rateProcessing 250
config **.webServer.web_server_rate 100
config **.p1 0.35
config **.p2 0.40
config network System
config num-rngs 4
config **.cpu.rng-0 0
config **.cpu.rng-1 1
config **.hd.rng-0 2
config **.webServer.rng-0 3
config repeat 500
config seed-set 155
config sim-time-limit 10000s
config **.client.numClients 40

vector 0 System.server.cpu requestCounterStat:vector ETV
attr recordingmode vector
attr source requestCounter
vector 1 System.server.hd utilizationHdStat:vector ETV
attr recordingmode vector
attr source utilizationHd
vector 2 System.server.cpu utilizationCpuStat:vector ETV
attr recordingmode vector
attr source utilizationCpu
vector 3 System.webServer utilizationWsStat:vector ETV
attr recordingmode vector
attr source utilizationWs
0	1854	1	163
0	3431	2	166
0	4753	3	135
0	6275	4	149
0	7723	5	139
0	9257	6	137
0	10598	7	140
0	11854	8	121
0	13471	9	144
0	14888	10	119
0	16362	11	143
0	17463	12	86
0	18715	13	119
0	20357	14	179
0	21755	15	131
0	23146	16	122
0	24465	17	126
0	25953	18	121
0	27523	19	131
0	29132	20	155
0	30770	21	171
0	32153	22	140
0	33704	23	148
0	35237	24	160
0	36853	25	149
0	38165	26	125
0	39518	27	136
0	40899	28	144
0	42120	29	114
0	43348	30	114
0	44937	31	146
0	46375	32	133
0	47731	33	117
0	49647	34	183
0	51064	35	136
0	52687	36	156
0	54123	37	129
0	55603	38	133
0	56856	39	126
0	58299	40	127
0	59645	41	135
0	61407	42	159
0	62879	43	137
0	64139	44	113
0	65646	45	154
0	67084	46	111
0	68617	47	140
0	69938	48	120
0	71448	49	165
0	72795	50	125
0	74151	51	127
0	75549	52	141
0	76636	53	102
0	78386	54	161
0	79706	55	111
0	81249	56	136
0	82577	57	141
0	83988	58	150
0	85312	59	125
0	86642	60	124
0	88003	61	138
0	89171	62	93
0	90700	63	158
0	91817	64	110
0	93146	65	108
0	94627	66	136
0	96409	67	181
0	97632	68	122
0	98812	69	123
0	100313	70	131
0	101760	71	130
0	103237	72	124
0	104541	73	117
0	105944	74	128
0	107221	75	112
0	108721	76	143
0	110331	77	147
0	112083	78	165
0	113680	79	160
0	115025	80	119
0	116518	81	160
0	118205	82	172
0	119564	83	116
0	121164	84	161
0	122739	85	156
0	124215	86	147
0	125979	87	157
0	127348	88	128
0	128821	89	144
0	130165	90	120
0	131442	91	130
0	133035	92	158
0	134382	93	124
0	136059	94	172
0	137805	95	163
0	139357	96	159
0	141026	97	154
0	142391	98	128
0	143775	99	141
0	145043	100	122
0	146597	101	131
0	148272	102	162
0	149639	103	114
0	150850	104	114
0	152250	105	121
0	153299	106	102
0	154753	107	139
0	156514	108	166
0	158311	109	180
0	159811	110	136
0	161273	111	121
0	162974	112	168
0	164208	113	121
0	165354	114	107
0	166842	115	161
0	168198	116	119
0	169447	117	102
0	170937	118	149
0	172234	119	138
0	174152	120	200
0	175634	121	145
0	177179	122	152
0	178569	123	133
0	179744	124	108
0	181223	125	144
0	182858	126	164
0	184394	127	161
0	186243	128	182
0	187498	129	124
0	188760	130	130
0	190044	131	121
0	191689	132	176
0	192728	133	82
0	194039	134	112
0	195271	135	125
0	196828	136	150
0	197996	137	101
0	199272	138	111
0	200626	139	137
0	202261	140	155
0	203538	141	138
0	204946	142	155
0	206414	143	157
0	208207	144	166
0	209637	145	127
0	211051	146	147
0	212185	147	111
0	213408	148	102
0	214940	149	153
0	216281	150	125
0	217714	151	134
0	218924	152	103
0	220659	153	160
0	222002	154	136
0	223581	155	156
0	225409	156	183
0	226763	157	143
0	228060	158	128
0	229816	159	187
0	231079	160	139
0	232644	161	152
0	234056	162	141
0	235543	163	134
0	236827	164	109
0	238397	165	169
0	239861	166	135
0	241581	167	151
0	243167	168	149
0	244740	169	148
0	246300	170	160
0	247428	171	85
0	248963	172	142
0	250397	173	139
0	251647	174	103
0	253235	175	169
0	254556	176	124
0	256367	177	202
0	257571	178	95
0	258878	179	128
0	260026	180	112
0	261539	181	136
0	263054	182	146
0	264107	183	92
0	265361	184	119
0	266707	185	123
0	267911	186	97
0	269494	187	142
0	271142	188	169
0	272456	189	125
0	273747	190	129
0	275043	191	115
0	276732	192	176
0	278236	193	139
0	279672	194	139
0	281107	195	138
0	282911	196	159
0	284477	197	157
0	285984	198	134
0	287226	199	99
0	288661	200	127
0	289800	201	98
0	291421	202	162
0	292924	203	142
0	294154	204	121
0	295592	205	137
0	297206	206	163
0	298708	207	143
0	300394	208	181
0	302120	209	169
0	303495	210	133
0	304950	211	134
0	306559	212	146
0	307890	213	132
0	309418	214	141
0	311165	215	188
0	312843	216	163
0	314498	217	168
0	316207	218	164
0	317507	219	113
0	318989	220	114
0	320875	221	167
0	322360	222	164
0	323971	223	152
0	325628	224	158
0	327320	225	169
0	328660	226	141
0	329988	227	113
0	331297	228	120
0	332625	229	129
0	334190	230	157
0	335648	231	137
0	337093	232	140
0	338626	233	152
0	339910	234	125
0	341288	235	145
0	342863	236	160
0	344424	237	150
0	345684	238	115
0	347319	239	146
0	348506	240	113
0	349577	241	94
0	351173	242	163
0	352768	243	150
0	354112	244	113
0	355476	245	143
0	356998	246	131
0	358376	247	113
0	360045	248	158
0	361479	249	147
0	363055	250	152
0	364468	251	124
0	365698	252	103
0	367152	253	143
0	368493	254	138
0	369955	255	149
0	371486	256	138
0	373078	257	157
0	374384	258	129
0	376121	259	182
0	377746	260	147
0	378966	261	113
0	380162	262	125
0	381527	263	132
0	383147	264	157
0	384785	265	155
0	386247	266	115
0	387547	267	119
0	389219	268	167
0	390596	269	124
0	392172	270	150
0	393680	271	151
0	395083	272	138
0	396815	273	169
0	398213	274	149
0	399509	275	129
0	401148	276	150
0	402137	277	98
0	403513	278	135
0	405225	279	167
0	406523	280	130
0	408227	281	159
0	409574	282	126
0	411372	283	173
0	412752	284	125
0	414527	285	186
0	415893	286	139
0	417243	287	117
0	418988	288	156
0	420638	289	161
0	422132	290	146
0	423655	291	158
0	424942	292	118
0	426450	293	169
0	427725	294	122
0	429010	295	130
0	430514	296	135
0	432043	297	148
0	433682	298	170
0	435203	299	136
0	436842	300	153
0	438343	301	158
0	439872	302	142
0	441277	303	148
0	442464	304	122
0	444098	305	183
0	445700	306	157
0	447336	307	159
0	448983	308	146
0	450352	309	134
0	451788	310	122
0	453411	311	174
0	455159	312	183
0	456440	313	126
0	457838	314	129
0	459247	315	134
0	460610	316	134
0	461914	317	113
0	463260	318	127
0	464513	319	116
0	466419	320	202
0	468259	321	173
0	469892	322	168
0	471529	323	148
0	473184	324	148
0	474589	325	114
0	476201	326	165
0	477766	327	144
0	479168	328	143
0	480497	329	136
0	481822	330	127
0	483778	331	191
0	485461	332	170
0	486735	333	101
0	488176	334	128
0	489621	335	156
0	491404	336	178
0	492769	337	136
0	494255	338	123
0	495563	339	121
0	496961	340	142
0	498327	341	127
0	499829	342	151
0	501161	343	117
0	502745	344	157
0	503848	345	92
0	505278	346	137
0	506788	347	135
0	508252	348	145
0	509507	349	116
0	510964	350	149
0	512396	351	133
0	513753	352	136
0	515562	353	192
0	516754	354	113
0	518188	355	123
0	519498	356	123
0	520854	357	133
0	522009	358	90
0	523426	359	128
0	524597	360	99
0	525688	361	102
0	526997	362	130
0	528456	363	132
0	529941	364	142
0	531495	365	139
0	533228	366	190
0	534611	367	132
0	536206	368	152
0	537682	369	129
0	539062	370	122
0	540514	371	129
0	542127	372	164
0	543710	373	124
0	545413	374	178
0	547029	375	167
0	548439	376	159
0	549819	377	129
0	551195	378	141
0	552549	379	121
0	554121	380	160
0	555373	381	93
0	556634	382	142
0	558295	383	156
0	559646	384	134
0	561347	385	172
0	562952	386	146
0	564769	387	164
0	566109	388	131
0	567500	389	126
0	568835	390	123
0	570566	391	164
0	571805	392	124
0	573063	393	119
0	574846	394	166
0	576192	395	151
0	577537	396	118
0	578850	397	112
0	580169	398	132
0	581720	399	166
0	583416	400	178
0	585001	401	156
0	586633	402	159
0	588078	403	140
0	589519	404	118
0	591311	405	181
0	592888	406	146
0	594490	407	169
0	595934	408	117
0	597141	409	126
0	598595	410	126
0	600168	411	170
0	601841	412	174
0	603683	413	155
0	605136	414	148
0	606418	415	109
0	607588	416	115
0	609355	417	178
0	610608	418	122
0	612118	419	121
0	613412	420	122
0	614776	421	113
0	616352	422	159
0	617408	423	85
0	618979	424	160
0	620267	425	135
0	621698	426	144
0	623448	427	173
0	625298	428	201
0	626801	429	146
0	628210	430	147
0	629529	431	128
0	631021	432	165
0	632685	433	151
0	634166	434	142
0	635265	435	102
0	636726	436	152
0	638191	437	148
0	639731	438	155
0	641078	439	126
0	642202	440	110
0	643695	441	140
0	645401	442	163
0	646669	443	121
0	648088	444	142
0	649686	445	163
0	651370	446	181
0	652819	447	128
0	654044	448	108
0	655621	449	160
0	657256	450	151
0	658755	451	140
0	660545	452	173
0	661973	453	147
0	663272	454	116
0	664481	455	106
0	666034	456	122
0	667473	457	132
0	668723	458	115
0	670364	459	160
0	671476	460	92
0	672815	461	148
0	674386	462	152
0	675554	463	77
0	677136	464	159
0	678527	465	130
0	680222	466	170
0	681779	467	170
0	683506	468	148
0	685078	469	149
0	686639	470	155
0	687996	471	144
0	689232	472	101
0	690590	473	139
0	691732	474	107
0	693456	475	173
0	694981	476	168
0	696908	477	210
0	698352	478	131
0	699805	479	144
0	701096	480	115
0	702658	481	145
0	704043	482	140
0	705507	483	133
0	706503	484	91
0	708123	485	151
0	709542	486	136
0	710828	487	117
0	712127	488	136
0	714024	489	208
0	715336	490	130
0	716944	491	147
0	718260	492	131
0	719547	493	124
0	720997	494	155
0	722447	495	131
0	724043	496	181
0	725341	497	107
0	726724	498	136
0	727983	499	114
0	729340	500	113
0	730675	501	118
0	732061	502	127
0	733746	503	160
0	735037	504	106
0	736370	505	128
0	737608	506	105
0	739327	507	184
0	741257	508	203
0	742611	509	129
0	744199	510	142
0	745870	511	176
0	747541	512	160
0	749166	513	144
0	750892	514	165
0	752434	515	161
0	753755	516	116
0	755250	517	150
0	756677	518	154
0	758258	519	152
0	759610	520	116
0	760924	521	127
0	762358	522	145
0	763771	523	122
0	765448	524	160
0	766811	525	124
0	768437	526	169
0	769616	527	108
0	770958	528	133
0	772196	529	133
0	773558	530	116
0	775131	531	124
0	776596	532	148
0	778170	533	163
0	779525	534	130
0	781251	535	173
0	782873	536	153
0	784386	537	154
0	785914	538	131
0	787227	539	112
0	788660	540	117
0	790278	541	159
0	791769	542	136
0	793425	543	155
0	794908	544	132
0	796582	545	155
0	797962	546	137
0	799672	547	171
0	801354	548	165
0	802981	549	168
0	804741	550	168
0	806046	551	128
0	807450	552	121
0	808702	553	115
0	810122	554	133
0	811832	555	157
0	813562	556	191
0	814900	557	135
0	816622	558	175
0	818000	559	139
0	819349	560	123
0	820638	561	114
0	821720	562	95
0	823110	563	139
0	824766	564	175
0	826183	565	122
0	827700	566	150
0	829046	567	133
0	830510	568	145
0	832074	569	151
0	833596	570	146
0	835397	571	172
0	836516	572	122
0	837941	573	126
0	839607	574	151
0	841073	575	133
0	842618	576	148
0	844242	577	163
0	845680	578	125
0	847265	579	158
0	848763	580	144
0	850198	581	134
0	851428	582	129
0	852714	583	125
0	854039	584	128
0	855488	585	160
0	856694	586	115
0	858281	587	176
0	859607	588	133
0	861222	589	144
0	862500	590	120
0	863964	591	139
0	865495	592	140
0	866949	593	123
0	868305	594	137
0	869919	595	159
0	871499	596	145
0	872961	597	149
0	874650	598	174
0	876303	599	156
0	877708	600	141
0	878713	601	106
0	880070	602	140
0	881501	603	132
0	883107	604	143
0	884416	605	128
0	885916	606	147
0	887247	607	126
0	888912	608	164
0	890434	609	143
0	892011	610	163
0	893489	611	147
0	894635	612	103
0	896062	613	134
0	897577	614	124
0	899311	615	171
0	900796	616	150
0	902045	617	102
0	903233	618	117
0	904414	619	102
0	906008	620	140
0	907435	621	132
0	908778	622	126
0	910306	623	145
0	911793	624	140
0	913129	625	141
0	914535	626	149
0	915966	627	130
0	917668	628	149
0	918900	629	111
0	920345	630	135
0	921887	631	149
0	923516	632	150
0	924747	633	118
0	925956	634	116
0	927301	635	140
0	928662	636	120
0	930367	637	180
0	931798	638	134
0	933055	639	136
0	934500	640	157
0	936150	641	169
0	937890	642	149
0	939401	643	148
0	940981	644	157
0	942615	645	145
0	943866	646	110
0	945268	647	145
0	946838	648	161
0	948443	649	146
0	949735	650	130
0	951045	651	155
0	952563	652	151
0	954203	653	169
0	955531	654	159
0	956847	655	107
0	958483	656	157
0	960051	657	161
0	961378	658	118
0	962552	659	113
0	964082	660	136
0	965406	661	127
0	966771	662	122
0	968255	663	155
0	969421	664	109
0	970821	665	121
0	972581	666	173
0	974015	667	147
0	975335	668	127
0	976955	669	131
0	978469	670	178
0	979788	671	134
0	981089	672	108
0	982458	673	120
0	984167	674	184
0	985776	675	158
0	987448	676	177
0	988657	677	112
0	990163	678	129
0	991505	679	123
0	993031	680	142
0	994704	681	162
0	995930	682	105
0	997414	683	139
0	998953	684	140
0	1000694	685	156
0	1001963	686	114
0	1003649	687	167
0	1004778	688	96
0	1006399	689	144
0	1007868	690	143
0	1009780	691	201
0	1011173	692	130
0	1012842	693	170
0	1014417	694	162
0	1015965	695	147
0	1017620	696	166
0	1018930	697	123
0	1020485	698	158
0	1021562	699	96
0	1022924	700	126
0	1024183	701	114
0	1025592	702	140
0	1026977	703	136
0	1028412	704	134
0	1029960	705	129
0	1031612	706	155
0	1032786	707	109
0	1034077	708	102
0	1035636	709	144
0	1037128	710	128
0	1038559	711	132
0	1040386	712	172
0	1042136	713	173
0	1043729	714	164
0	1045045	715	109
0	1046990	716	190
0	1048260	717	105
0	1049836	718	151
0	1051152	719	127
0	1052750	720	146
0	1054394	721	165
0	1055991	722	160
0	1057654	723	142
0	1058996	724	139
0	1060595	725	154
0	1061995	726	133
0	1063733	727	157
0	1065273	728	139
0	1066607	729	127
0	1068100	730	135
0	1069760	731	171
0	1071040	732	127
0	1072845	733	184
0	1074214	734	138
0	1075621	735	136
0	1077402	736	184
0	1078602	737	109
0	1080055	738	148
0	1081727	739	169
0	1083320	740	143
0	1084776	741	161
0	1086248	742	131
0	1087536	743	111
0	1088908	744	129
0	1090246	745	131
0	1091925	746	164
0	1093300	747	132
0	1094599	748	116
0	1096005	749	131
0	1097466	750	145
0	1098963	751	136
0	1100280	752	116
0	1101638	753	123
0	1103204	754	153
0	1104623	755	132
0	1105973	756	123
0	1107490	757	142
0	1108867	758	150
0	1110062	759	112
0	1111279	760	93
0	1112477	761	115
0	1114070	762	144
0	1115601	763	154
0	1117238	764	152
0	1118578	765	113
0	1119918	766	125
0	1121475	767	144
0	1122748	768	116
0	1124136	769	125
0	1125600	770	124
0	1126828	771	133
0	1128226	772	139
0	1129678	773	123
0	1131068	774	141
0	1132389	775	128
0	1133819	776	139
0	1135457	777	159
0	1136718	778	110
0	1138437	779	166
0	1139913	780	150
0	1141278	781	138
0	1142996	782	153
0	1144129	783	112
0	1145421	784	111
0	1146701	785	131
0	1148216	786	122
0	1149502	787	111
0	1151309	788	196
0	1152681	789	133
0	1154067	790	144
0	1155395	791	117
0	1156898	792	152
0	1158291	793	130
0	1159879	794	181
0	1161649	795	173
0	1163184	796	154
0	1164662	797	139
0	1166047	798	144
0	1167379	799	119
0	1168536	800	91
0	1169995	801	130
0	1171624	802	168
0	1172654	803	83
0	1174098	804	135
0	1175491	805	118
0	1177023	806	149
0	1178713	807	163
0	1180108	808	116
0	1181892	809	179
0	1183168	810	110
0	1184358	811	115
0	1185888	812	141
0	1187366	813	147
0	1188758	814	133
0	1190204	815	135
0	1191797	816	156
0	1193067	817	113
0	1194424	818	134
0	1196127	819	178
0	1197594	820	127
0	1199390	821	187
0	1201161	822	194
0	1202546	823	128
0	1203913	824	122
0	1205309	825	123
0	1206876	826	152
0	1208270	827	139
0	1210155	828	160
0	1211510	829	138
0	1213157	830	177
0	1214479	831	127
0	1215866	832	120
0	1217215	833	126
0	1218494	834	118
0	1220002	835	157
0	1221671	836	150
0	1222998	837	120
0	1224733	838	174
0	1226079	839	139
0	1227714	840	149
0	1229196	841	139
0	1230484	842	113
0	1232069	843	154
0	1233598	844	148
0	1234950	845	141
0	1236074	846	107
0	1237948	847	177
0	1239543	848	152
0	1241156	849	172
0	1242374	850	110
0	1243791	851	140
0	1245301	852	157
0	1246444	853	96
0	1247794	854	123
0	1249227	855	134
0	1251175	856	203
0	1252803	857	153
0	1254161	858	155
0	1255378	859	100
0	1256790	860	138
0	1258262	861	113
0	1259768	862	137
0	1260946	863	101
0	1262192	864	125
0	1263716	865	189
0	1265048	866	109
0	1266115	867	78
0	1267628	868	142
0	1269090	869	153
0	1270714	870	158
0	1272126	871	127
0	1273658	872	153
0	1274918	873	109
0	1276409	874	138
0	1277986	875	170
0	1279280	876	129
0	1280555	877	116
0	1282037	878	155
0	1283820	879	164
0	1285292	880	156
0	1286812	881	147
0	1288586	882	189
0	1290090	883	141
0	1291545	884	122
0	1292801	885	115
0	1294311	886	139
0	1295523	887	131
0	1297012	888	136
0	1298756	889	169
0	1300138	890	134
0	1301710	891	157
0	1303222	892	145
0	1304474	893	111
0	1305762	894	139
0	1306989	895	110
0	1308402	896	130
0	1309516	897	103
0	1310846	898	121
0	1312189	899	114
0	1313453	900	128
0	1315097	901	173
0	1316663	902	129
0	1318078	903	148
0	1319954	904	209
0	1321374	905	149
0	1322967	906	160
0	1324603	907	165
0	1326148	908	158
0	1327663	909	156
0	1329243	910	152
0	1330404	911	106
0	1332145	912	160
0	1334019	913	171
0	1335849	914	197
0	1336994	915	106
0	1338561	916	162
0	1339991	917	133
0	1341341	918	135
0	1342922	919	128
0	1344237	920	127
0	1345783	921	141
0	1347403	922	151
0	1348851	923	147
0	1350321	924	135
0	1351843	925	155
0	1353145	926	113
0	1354393	927	111
0	1355764	928	116
0	1357410	929	173
0	1359232	930	182
0	1360609	931	124
0	1362067	932	139
0	1363547	933	153
0	1364877	934	115
0	1366293	935	137
0	1367690	936	116
0	1368771	937	98
0	1370618	938	184
0	1372009	939	124
0	1373514	940	143
0	1374813	941	116
0	1376352	942	138
0	1377960	943	137
0	1379380	944	127
0	1380828	945	135
0	1382405	946	160
0	1384016	947	156
0	1385330	948	129
0	1386689	949	120
0	1388162	950	133
0	1389725	951	170
0	1391053	952	133
0	1392306	953	124
0	1394074	954	159
0	1395363	955	122
0	1396723	956	125
0	1398029	957	127
0	1399459	958	155
0	1401029	959	155
0	1402149	960	128
0	1403428	961	106
0	1405048	962	157
0	1406780	963	157
0	1408153	964	130
0	1409710	965	144
0	1411293	966	152
0	1412831	967	145
0	1414274	968	148
0	1415647	969	156
0	1417153	970	150
0	1418536	971	132
0	1419920	972	151
0	1421619	973	168
0	1423080	974	138
0	1424742	975	167
0	1426063	976	134
0	1427664	977	136
0	1429299	978	174
0	1430984	979	182
0	1432423	980	153
0	1433628	981	118
0	1435199	982	156
0	1436919	983	165
0	1438272	984	130
0	1439758	985	153
0	1441330	986	177
0	1442835	987	132
0	1444227	988	125
0	1446107	989	173
0	1447872	990	187
0	1449280	991	145
0	1450732	992	131
0	1452366	993	167
0	1453942	994	163
0	1455442	995	133
0	1456942	996	161
0	1458366	997	157
0	1459815	998	124
0	1461075	999	129
0	1462441	1000	122
0	1463893	1001	137
0	1465510	1002	158
0	1466800	1003	125
0	1468412	1004	151
0	1469695	1005	120
0	1471018	1006	148
0	1472522	1007	157
0	1473955	1008	156
0	1475192	1009	134
0	1476555	1010	129
0	1477778	1011	122
0	1478902	1012	101
0	1480410	1013	149
0	1481897	1014	134
0	1483474	1015	156
0	1484695	1016	132
0	1485960	1017	108
0	1487552	1018	161
0	1489127	1019	146
0	1490558	1020	149
0	1492162	1021	161
0	1493483	1022	126
0	1494835	1023	123
0	1496307	1024	133
0	1497754	1025	138
0	1499214	1026	161
0	1500733	1027	136
0	1502154	1028	130
0	1503785	1029	164
0	1504782	1030	85
0	1506507	1031	176
0	1508095	1032	149
0	1509678	1033	154
0	1511048	1034	135
0	1512289	1035	128
0	1513669	1036	121
0	1515045	1037	121
0	1516484	1038	122
0	1517581	1039	104
0	1519018	1040	147
0	1520297	1041	114
0	1521819	1042	141
0	1523224	1043	126
0	1524448	1044	113
0	1525789	1045	112
0	1527145	1046	141
0	1528318	1047	108
0	1529834	1048	147
0	1531112	1049	113
0	1532369	1050	99
0	1534060	1051	152
0	1535360	1052	123
0	1536892	1053	145
0	1538195	1054	134
0	1540028	1055	190
0	1541486	1056	121
0	1543215	1057	172
0	1544601	1058	143
0	1546489	1059	199
0	1548265	1060	194
0	1549902	1061	172
0	1551369	1062	130
0	1553190	1063	140
0	1554669	1064	142
0	1556256	1065	152
0	1557316	1066	107
0	1558663	1067	106
0	1560092	1068	134
0	1561392	1069	137
0	1562679	1070	103
0	1564077	1071	131
0	1565213	1072	109
0	1566623	1073	151
0	1568078	1074	162
0	1569396	1075	123
0	1571031	1076	142
0	1572511	1077	139
0	1574140	1078	162
0	1575396	1079	117
0	1577154	1080	146
0	1578528	1081	147
0	1579861	1082	132
0	1581518	1083	166
0	1582774	1084	115
0	1584492	1085	155
0	1586016	1086	137
0	1587545	1087	148
0	1589029	1088	145
0	1590416	1089	126
0	1591852	1090	130
0	1593015	1091	112
0	1594447	1092	137
0	1596012	1093	140
0	1597638	1094	151
0	1599483	1095	204
0	1600894	1096	130
0	1602296	1097	125
0	1603144	1098	75
0	1604521	1099	132
0	1606239	1100	146
0	1607472	1101	118
0	1608733	1102	130
0	1610328	1103	142
0	1611740	1104	133
0	1613229	1105	140
0	1614807	1106	133
0	1616398	1107	152
0	1617681	1108	118
0	1619225	1109	145
0	1620740	1110	143
0	1622045	1111	122
0	1623518	1112	132
0	1625110	1113	165
0	1626869	1114	170
0	1628280	1115	138
0	1629841	1116	158
0	1631032	1117	112
0	1632528	1118	157
0	1634161	1119	160
0	1635526	1120	143
0	1637008	1121	131
0	1638455	1122	140
0	1640197	1123	175
0	1641697	1124	151
0	1642926	1125	96
0	1644612	1126	175
0	1645907	1127	136
0	1647122	1128	126
0	1648743	1129	162
0	1650148	1130	155
0	1651786	1131	157
0	1653121	1132	126
0	1654807	1133	177
0	1656534	1134	180
0	1657687	1135	114
0	1659044	1136	132
0	1660370	1137	121
0	1661805	1138	148
0	1663542	1139	178
0	1665110	1140	146
0	1666358	1141	107
0	1668040	1142	161
0	1669344	1143	125
0	1670728	1144	127
0	1672362	1145	143
0	1674098	1146	177
0	1675413	1147	124
0	1676719	1148	117
0	1678465	1149	169
0	1680185	1150	158
0	1681757	1151	155
0	1683384	1152	170
0	1685070	1153	163
0	1686451	1154	124
0	1687969	1155	161
0	1689323	1156	137
0	1691177	1157	171
0	1693027	1158	159
0	1694750	1159	166
0	1695845	1160	97
0	1697050	1161	122
0	1698327	1162	124
0	1699954	1163	172
0	1701312	1164	131
0	1702940	1165	161
0	1704464	1166	123
0	1705957	1167	142
0	1707625	1168	169
0	1708975	1169	139
0	1710194	1170	121
0	1711548	1171	131
0	1712903	1172	130
0	1714216	1173	112
0	1716102	1174	193
0	1717609	1175	144
0	1719084	1176	142
0	1720870	1177	175
0	1722421	1178	138
0	1724107	1179	159
0	1725883	1180	186
0	1727516	1181	178
0	1729146	1182	173
0	1730793	1183	180
0	1732280	1184	150
0	1733898	1185	157
0	1735280	1186	125
0	1736882	1187	155
0	1738466	1188	149
0	1739988	1189	151
0	1741661	1190	167
0	1743222	1191	148
0	1744835	1192	158
0	1746020	1193	110
0	1747316	1194	121
0	1748799	1195	142
0	1750282	1196	126
0	1751518	1197	101
0	1752915	1198	118
0	1754275	1199	139
0	1755827	1200	152
0	1757326	1201	136
0	1758907	1202	158
0	1760518	1203	158
0	1761953	1204	120
0	1763439	1205	157
0	1765300	1206	182
0	1767025	1207	168
0	1768613	1208	159
0	1769984	1209	126
0	1771409	1210	129
0	1773034	1211	154
0	1774438	1212	129
0	1775552	1213	119
0	1776799	1214	126
0	1778465	1215	181
0	1779973	1216	145
0	1781388	1217	148
0	1782762	1218	129
0	1784149	1219	124
0	1785553	1220	120
0	1786655	1221	91
0	1788141	1222	147
0	1789575	1223	135
0	1791058	1224	144
0	1792525	1225	142
0	1794041	1226	135
0	1796022	1227	208
0	1797599	1228	162
0	1798947	1229	143
0	1800378	1230	137
0	1801809	1231	138
0	1803302	1232	124
0	1804483	1233	104
0	1805783	1234	139
0	1807302	1235	148
0	1808637	1236	134
0	1810002	1237	146
0	1811355	1238	136
0	1813066	1239	172
0	1814270	1240	100
0	1815801	1241	150
0	1817505	1242	177
0	1819122	1243	148
0	1820658	1244	147
0	1822219	1245	122
0	1823728	1246	144
0	1824909	1247	104
0	1826361	1248	131
0	1827631	1249	121
0	1829021	1250	132
0	1830546	1251	144
0	1832059	1252	144
0	1833606	1253	150
0	1834956	1254	129
0	1836876	1255	187
0	1838477	1256	146
0	1839849	1257	133
0	1841441	1258	133
0	1842766	1259	124
0	1844073	1260	117
0	1845454	1261	124
0	1847104	1262	179
0	1848792	1263	169
0	1850245	1264	142
0	1851724	1265	144
0	1852840	1266	113
0	1854142	1267	125
0	1856035	1268	172
0	1857506	1269	136
0	1859099	1270	135
0	1860781	1271	153
0	1861928	1272	108
0	1863188	1273	105
0	1864597	1274	120
0	1865591	1275	99
0	1867034	1276	134
0	1868586	1277	145
0	1869624	1278	99
0	1871147	1279	138
0	1872362	1280	101
0	1873855	1281	140
0	1875358	1282	154
0	1876743	1283	120
0	1878141	1284	137
0	1879436	1285	124
0	1880906	1286	157
0	1882570	1287	171
0	1883889	1288	122
0	1884831	1289	71
0	1886380	1290	171
0	1887604	1291	129
0	1889012	1292	137
0	1890486	1293	145
0	1891884	1294	149
0	1893375	1295	146
0	1894930	1296	170
0	1896641	1297	170
0	1897960	1298	134
0	1899412	1299	125
0	1900796	1300	140
0	1902354	1301	141
0	1903729	1302	126
0	1905204	1303	130
0	1906525	1304	118
0	1907730	1305	128
0	1909379	1306	144
0	1910871	1307	141
0	1912168	1308	128
0	1913763	1309	152
0	1915095	1310	126
0	1916136	1311	104
0	1917568	1312	141
0	1919117	1313	142
0	1920170	1314	86
0	1921596	1315	143
0	1923048	1316	145
0	1924532	1317	137
0	1925765	1318	112
0	1927025	1319	127
0	1928314	1320	121
0	1929967	1321	152
0	1931934	1322	188
0	1933457	1323	130
0	1934717	1324	111
0	1936190	1325	132
0	1937728	1326	155
0	1939290	1327	143
0	1940958	1328	149
0	1942327	1329	122
0	1943841	1330	140
0	1945241	1331	149
0	1946796	1332	156
0	1948159	1333	140
0	1949645	1334	139
0	1951274	1335	174
0	1952633	1336	122
0	1954302	1337	166
0	1955727	1338	124
0	1957001	1339	119
0	1958302	1340	123
0	1959795	1341	156
0	1961199	1342	141
0	1962566	1343	146
0	1964027	1344	134
0	1965732	1345	186
0	1967163	1346	130
0	1968696	1347	136
0	1970328	1348	145
0	1971673	1349	138
0	1973330	1350	159
0	1974825	1351	148
0	1976126	1352	144
0	1977846	1353	151
0	1979573	1354	176
0	1980945	1355	131
0	1982534	1356	142
0	1983674	1357	101
0	1985226	1358	153
0	1986503	1359	116
0	1987976	1360	127
0	1989302	1361	121
0	1990602	1362	111
0	1991806	1363	109
0	1993270	1364	139
0	1994787	1365	134
0	1996161	1366	127
0	1997642	1367	162
0	1998815	1368	122
0	2000411	1369	161
0	2001850	1370	135
0	2003402	1371	167
0	2004806	1372	141
0	2006442	1373	143
0	2007888	1374	147
0	2009443	1375	150
0	2011150	1376	178
0	2012692	1377	145
0	2014107	1378	132
0	2015796	1379	162
0	2017335	1380	159
0	2018887	1381	149
0	2020569	1382	161
0	2021972	1383	136
0	2023478	1384	141
0	2025303	1385	188
0	2026870	1386	142
0	2028343	1387	152
0	2029498	1388	104
0	2030925	1389	142
0	2032693	1390	198
0	2034445	1391	161
0	2036083	1392	159
0	2037603	1393	129
0	2039364	1394	178
0	2040870	1395	141
0	2042347	1396	134
0	2043810	1397	158
0	2045707	1398	182
0	2047271	1399	157
0	2048793	1400	164
0	2050322	1401	154
0	2051808	1402	133
0	2053413	1403	162
0	2054804	1404	138
0	2056252	1405	145
0	2057569	1406	120
0	2058899	1407	127
0	2060411	1408	145
0	2061813	1409	135
0	2063344	1410	149
0	2065045	1411	164
0	2066362	1412	120
0	2067932	1413	149
0	2069777	1414	200
0	2071492	1415	170
0	2072821	1416	120
0	2074607	1417	169
0	2076277	1418	163
0	2077935	1419	167
0	2079542	1420	161
0	2080887	1421	120
0	2082426	1422	156
0	2083831	1423	152
0	2085342	1424	126
0	2086844	1425	153
0	2088203	1426	122
0	2089802	1427	150
0	2091326	1428	153
0	2092503	1429	88
0	2093973	1430	134
0	2095545	1431	151
0	2096964	1432	138
0	2098265	1433	122
0	2099890	1434	160
0	2101512	1435	135
0	2102720	1436	105
0	2104184	1437	141
0	2105495	1438	138
0	2106948	1439	140
0	2108430	1440	158
0	2109951	1441	146
0	2111290	1442	132
0	2112507	1443	108
0	2114053	1444	163
0	2115586	1445	164
0	2117048	1446	123
0	2118491	1447	132
0	2119851	1448	121
0	2121387	1449	155
0	2122873	1450	142
0	2124070	1451	98
0	2125783	1452	154
0	2127347	1453	157
0	2128818	1454	162
0	2130197	1455	158
0	2131836	1456	134
0	2132965	1457	92
0	2134304	1458	132
0	2135894	1459	145
0	2137176	1460	122
0	2138859	1461	156
0	2140284	1462	138
0	2141630	1463	119
0	2143218	1464	143
0	2144549	1465	130
0	2145720	1466	116
0	2147187	1467	136
0	2148683	1468	151
0	2150131	1469	129
0	2151833	1470	162
0	2153374	1471	160
0	2155221	1472	176
0	2156563	1473	117
0	2158082	1474	158
0	2159231	1475	96
0	2160407	1476	105
0	2161527	1477	113
0	2163011	1478	129
0	2164509	1479	157
0	2166289	1480	172
0	2167594	1481	112
0	2168919	1482	136
0	2170665	1483	179
0	2172348	1484	172
0	2173982	1485	173
0	2175580	1486	163
0	2177416	1487	181
0	2179123	1488	156
0	2180570	1489	146
0	2182512	1490	194
0	2183996	1491	129
0	2185297	1492	126
0	2186705	1493	135
0	2188139	1494	123
0	2189165	1495	79
0	2190496	1496	122
0	2192211	1497	166
0	2193832	1498	160
0	2195795	1499	190
0	2197558	1500	177
0	2199229	1501	160
0	2200659	1502	121
0	2202241	1503	159
0	2203869	1504	169
0	2205461	1505	151
0	2207137	1506	175
0	2208809	1507	165
0	2210242	1508	140
0	2212066	1509	183
0	2213548	1510	124
0	2214861	1511	132
0	2216508	1512	152
0	2217677	1513	108
0	2219229	1514	141
0	2220507	1515	115
0	2221658	1516	108
0	2222856	1517	99
0	2224137	1518	116
0	2225572	1519	118
0	2227222	1520	170
0	2228590	1521	137
0	2230335	1522	180
0	2231578	1523	122
0	2233452	1524	187
0	2235173	1525	184
0	2236612	1526	136
0	2238192	1527	163
0	2239391	1528	108
0	2240609	1529	121
0	2241900	1530	119
0	2243078	1531	139
0	2244685	1532	154
0	2246325	1533	155
0	2247385	1534	95
0	2248799	1535	141
0	2249883	1536	93
0	2251641	1537	177
0	2253051	1538	121
0	2254318	1539	108
0	2255521	1540	127
0	2256986	1541	130
0	2258918	1542	191
0	2260119	1543	98
0	2261483	1544	135
0	2262629	1545	95
0	2264170	1546	146
0	2265958	1547	157
0	2267522	1548	155
0	2269050	1549	153
0	2270473	1550	131
0	2271832	1551	130
0	2273234	1552	109
0	2274699	1553	144
0	2276232	1554	140
0	2277568	1555	131
0	2278863	1556	124
0	2280182	1557	122
0	2281874	1558	155
0	2283516	1559	179
0	2284813	1560	117
0	2286196	1561	138
0	2287737	1562	132
0	2289205	1563	153
0	2290698	1564	142
0	2291943	1565	120
0	2293204	1566	112
0	2294723	1567	146
0	2296326	1568	170
0	2297485	1569	116
0	2298882	1570	127
0	2300446	1571	173
0	2301939	1572	136
0	2303550	1573	154
0	2304672	1574	103
0	2306383	1575	174
0	2308221	1576	167
0	2309666	1577	118
0	2311347	1578	176
0	2312985	1579	161
0	2314125	1580	92
0	2315708	1581	168
0	2317220	1582	135
0	2318423	1583	104
0	2320148	1584	150
0	2321768	1585	145
0	2323620	1586	185
0	2324905	1587	124
0	2326324	1588	138
0	2328108	1589	177
0	2329405	1590	99
0	2330749	1591	123
0	2332381	1592	161
0	2334053	1593	167
0	2335456	1594	118
0	2336862	1595	139
0	2338414	1596	145
0	2339663	1597	120
0	2341601	1598	199
0	2343014	1599	124
0	2344592	1600	132
0	2346310	1601	189
0	2347632	1602	131
0	2349125	1603	144
0	2350327	1604	107
0	2351720	1605	132
0	2353429	1606	160
0	2354731	1607	121
0	2355799	1608	99
0	2357236	1609	144
0	2358362	1610	108
0	2359900	1611	155
0	2361331	1612	132
0	2363063	1613	171
0	2364411	1614	131