version 3
run SimulationTime-157-20240107-16:16:49-3608
attr configname SimulationTime
attr datetime 20240107-16:16:49
attr datetimef 20240107-161649
attr experiment SimulationTime
attr inifile omnetpp.ini
attr iterationvars ""
attr iterationvarsd ""
attr iterationvarsf ""
attr measurement ""
attr network System
attr processid 3608
attr repetition 157
attr replication #157
attr resultdir results
attr runnumber 157
attr seedset 157
config **.cpu.rate 1000
config **.hd.rateProcessing 250
config **.webServer.web_server_rate 100
config **.p1 0.35
config **.p2 0.40
config network System
config num-rngs 4
config **.cpu.rng-0 0
config **.cpu.rng-1 1
config **.hd.rng-0 2
config **.webServer.rng-0 3
config repeat 500
config seed-set 157
config sim-time-limit 10000s
config **.client.numClients 40

vector 0 System.server.cpu requestCounterStat:vector ETV
attr recordingmode vector
attr source requestCounter
vector 1 System.server.hd utilizationHdStat:vector ETV
attr recordingmode vector
attr source utilizationHd
vector 2 System.server.cpu utilizationCpuStat:vector ETV
attr recordingmode vector
attr source utilizationCpu
vector 3 System.webServer utilizationWsStat:vector ETV
attr recordingmode vector
attr source utilizationWs
0	2106	1	195
0	3802	2	177
0	5361	3	166
0	7306	4	176
0	8593	5	140
0	10190	6	156
0	11727	7	142
0	13099	8	133
0	14617	9	151
0	16112	10	145
0	17599	11	150
0	18780	12	108
0	19898	13	91
0	21492	14	149
0	22889	15	142
0	24274	16	134
0	25832	17	147
0	27120	18	129
0	28721	19	132
0	30548	20	199
0	31982	21	143
0	33493	22	144
0	34929	23	139
0	36397	24	143
0	37853	25	147
0	38936	26	90
0	40222	27	123
0	41718	28	137
0	43172	29	143
0	44635	30	125
0	45946	31	114
0	47326	32	115
0	48669	33	118
0	50097	34	143
0	51235	35	115
0	52847	36	141
0	54588	37	176
0	56171	38	160
0	57433	39	125
0	58852	40	137
0	60369	41	144
0	61732	42	132
0	63325	43	156
0	64635	44	117
0	66030	45	122
0	67648	46	165
0	69276	47	139
0	70975	48	178
0	72351	49	127
0	73781	50	136
0	75182	51	136
0	77021	52	172
0	78364	53	138
0	79790	54	139
0	81464	55	177
0	82773	56	120
0	84143	57	135
0	85322	58	110
0	86625	59	130
0	88194	60	165
0	89602	61	121
0	91183	62	128
0	92600	63	138
0	94001	64	116
0	95507	65	155
0	97125	66	169
0	98442	67	134
0	99800	68	115
0	101275	69	138
0	102737	70	138
0	104007	71	131
0	105266	72	106
0	106623	73	120
0	108483	74	181
0	109789	75	123
0	111736	76	202
0	112865	77	104
0	114132	78	114
0	115668	79	155
0	117258	80	166
0	119042	81	179
0	120288	82	123
0	121646	83	131
0	123225	84	142
0	124365	85	129
0	125817	86	141
0	127352	87	126
0	128690	88	127
0	130161	89	136
0	131868	90	187
0	133236	91	135
0	134684	92	143
0	136174	93	145
0	137654	94	135
0	138870	95	125
0	140219	96	132
0	141642	97	142
0	142945	98	114
0	144364	99	142
0	145855	100	169
0	147198	101	130
0	148725	102	138
0	150299	103	143
0	151408	104	96
0	152904	105	139
0	154540	106	177
0	156056	107	143
0	157520	108	153
0	159140	109	147
0	160571	110	151
0	162162	111	138
0	163581	112	134
0	165024	113	134
0	166785	114	162
0	168082	115	130
0	169557	116	130
0	171098	117	146
0	172582	118	135
0	174280	119	159
0	175689	120	139
0	177389	121	165
0	178774	122	132
0	180211	123	120
0	181903	124	169
0	183315	125	133
0	184767	126	143
0	186347	127	143
0	187693	128	127
0	189400	129	166
0	190791	130	129
0	192282	131	162
0	193933	132	168
0	195551	133	157
0	196953	134	147
0	198330	135	128
0	199697	136	122
0	201253	137	153
0	202515	138	119
0	204102	139	154
0	205261	140	109
0	206795	141	161
0	208223	142	131
0	209600	143	152
0	211334	144	173
0	212776	145	151
0	214166	146	141
0	215581	147	144
0	217000	148	136
0	218539	149	154
0	220161	150	158
0	221821	151	163
0	223051	152	115
0	224451	153	127
0	225803	154	111
0	227596	155	182
0	228739	156	110
0	230216	157	150
0	231913	158	176
0	233483	159	157
0	235118	160	153
0	236600	161	151
0	237786	162	119
0	239155	163	140
0	240685	164	143
0	241856	165	102
0	243428	166	149
0	245245	167	180
0	246538	168	112
0	247771	169	120
0	249082	170	129
0	250466	171	121
0	252036	172	155
0	253540	173	135
0	254789	174	118
0	256181	175	137
0	257356	176	126
0	258653	177	116
0	259865	178	115
0	261314	179	152
0	262742	180	126
0	264088	181	127
0	265489	182	132
0	266641	183	103
0	268054	184	142
0	269344	185	133
0	270860	186	131
0	272411	187	142
0	273702	188	102
0	275086	189	133
0	277156	190	220
0	278892	191	183
0	280837	192	206
0	282373	193	155
0	283820	194	142
0	285444	195	149
0	286669	196	112
0	288066	197	132
0	289396	198	119
0	291173	199	166
0	292722	200	149
0	294150	201	147
0	295340	202	99
0	297005	203	154
0	298106	204	104
0	299727	205	160
0	301296	206	148
0	302807	207	162
0	304162	208	118
0	305621	209	134
0	307023	210	146
0	308612	211	152
0	310204	212	155
0	312059	213	188
0	313357	214	127
0	314823	215	143
0	316288	216	148
0	317682	217	143
0	318932	218	113
0	320386	219	141
0	321842	220	140
0	323708	221	187
0	325200	222	143
0	326625	223	146
0	327852	224	116
0	329211	225	132
0	330900	226	164
0	332591	227	172
0	333956	228	122
0	335706	229	175
0	337129	230	135
0	338440	231	122
0	339804	232	119
0	341071	233	114
0	342725	234	153
0	344186	235	122
0	345556	236	129
0	346993	237	126
0	348394	238	136
0	349673	239	128
0	350935	240	126
0	352442	241	138
0	354004	242	165
0	355296	243	125
0	356792	244	129
0	358379	245	146
0	359691	246	121
0	361357	247	163
0	363018	248	164
0	364073	249	86
0	365546	250	133
0	366801	251	108
0	368506	252	164
0	370021	253	158
0	371594	254	156
0	373317	255	186
0	375217	256	201
0	376592	257	138
0	378270	258	181
0	379531	259	106
0	381171	260	140
0	382582	261	142
0	384227	262	146
0	385562	263	124
0	387151	264	148
0	388620	265	144
0	389935	266	122
0	391019	267	87
0	392135	268	103
0	393819	269	171
0	395114	270	119
0	396705	271	156
0	397939	272	109
0	399424	273	160
0	401249	274	172
0	402574	275	120
0	403922	276	137
0	405324	277	139
0	407065	278	180
0	408342	279	124
0	409766	280	150
0	411134	281	131
0	412549	282	132
0	414126	283	164
0	415738	284	159
0	417464	285	189
0	419097	286	142
0	420366	287	108
0	422172	288	169
0	423943	289	172
0	425495	290	148
0	426751	291	123
0	427993	292	121
0	429456	293	130
0	430864	294	129
0	432478	295	161
0	433863	296	122
0	435220	297	124
0	436486	298	111
0	437753	299	124
0	438911	300	104
0	440524	301	152
0	441933	302	128
0	443556	303	158
0	444969	304	148
0	446814	305	194
0	448190	306	117
0	449533	307	136
0	451266	308	168
0	452813	309	152
0	454255	310	124
0	455763	311	153
0	457121	312	127
0	458665	313	143
0	460028	314	126
0	461626	315	159
0	463108	316	165
0	464662	317	145
0	466067	318	146
0	467349	319	123
0	468757	320	122
0	470360	321	148
0	471583	322	98
0	472706	323	110
0	474078	324	135
0	475592	325	129
0	477226	326	163
0	478518	327	109
0	480133	328	186
0	481531	329	141
0	482856	330	125
0	484582	331	181
0	485914	332	119
0	487392	333	141
0	489333	334	202
0	490982	335	168
0	492733	336	166
0	494306	337	162
0	495754	338	143
0	497330	339	157
0	498928	340	150
0	500523	341	170
0	501854	342	134
0	503183	343	132
0	504558	344	126
0	505859	345	128
0	507423	346	155
0	509022	347	172
0	510532	348	153
0	512419	349	176
0	514286	350	165
0	515636	351	127
0	517024	352	127
0	518325	353	118
0	519587	354	143
0	520955	355	131
0	522696	356	168
0	523764	357	95
0	524925	358	116
0	526212	359	138
0	527847	360	133
0	529590	361	168
0	531137	362	136
0	532711	363	145
0	534127	364	135
0	535581	365	133
0	536814	366	110
0	538229	367	134
0	540105	368	169
0	541412	369	146
0	542872	370	144
0	544553	371	156
0	546162	372	168
0	547611	373	142
0	549005	374	141
0	550594	375	156
0	551964	376	129
0	553419	377	128
0	554691	378	105
0	556331	379	157
0	557778	380	153
0	559134	381	141
0	560402	382	141
0	561660	383	105
0	563206	384	151
0	564765	385	156
0	566510	386	192
0	568177	387	154
0	569931	388	155
0	571633	389	171
0	572862	390	115
0	574308	391	127
0	576004	392	161
0	577327	393	132
0	578681	394	111
0	580042	395	138
0	581494	396	153
0	582902	397	129
0	584316	398	111
0	585777	399	152
0	587602	400	171
0	588999	401	118
0	590710	402	142
0	592284	403	163
0	593594	404	133
0	594786	405	97
0	596372	406	159
0	597876	407	137
0	599357	408	148
0	600915	409	187
0	602159	410	114
0	603566	411	132
0	605169	412	138
0	606681	413	141
0	608007	414	121
0	609608	415	150
0	610813	416	124
0	612091	417	127
0	613667	418	141
0	615221	419	141
0	616779	420	138
0	618210	421	148
0	619542	422	121
0	621163	423	168
0	622626	424	142
0	624208	425	147
0	625740	426	149
0	627479	427	166
0	628838	428	142
0	630400	429	151
0	631893	430	127
0	633436	431	168
0	635202	432	181
0	636490	433	97
0	638061	434	140
0	639642	435	154
0	641205	436	154
0	642741	437	145
0	644393	438	171
0	645997	439	151
0	647423	440	146
0	648589	441	107
0	650159	442	157
0	651853	443	173
0	653373	444	153
0	654931	445	147
0	656467	446	149
0	657866	447	128
0	659420	448	143
0	660901	449	130
0	662726	450	187
0	664337	451	148
0	665871	452	149
0	667239	453	119
0	668621	454	141
0	670017	455	117
0	671530	456	152
0	672855	457	136
0	674069	458	115
0	675718	459	152
0	677444	460	158
0	679276	461	189
0	680820	462	137
0	682477	463	156
0	683649	464	97
0	685076	465	146
0	686407	466	120
0	687456	467	94
0	688777	468	116
0	689941	469	93
0	691606	470	167
0	693095	471	152
0	694615	472	147
0	695979	473	123
0	697431	474	127
0	698934	475	180
0	700415	476	142
0	701753	477	137
0	703516	478	162
0	704932	479	145
0	706428	480	148
0	707795	481	136
0	709613	482	149
0	711323	483	163
0	712852	484	154
0	714658	485	181
0	716092	486	125
0	717617	487	150
0	719012	488	140
0	720578	489	141
0	722073	490	137
0	723566	491	148
0	724877	492	112
0	726186	493	126
0	727663	494	136
0	729327	495	161
0	730756	496	152
0	732126	497	119
0	733391	498	118
0	735049	499	149
0	736371	500	138
0	737954	501	170
0	739569	502	158
0	741029	503	141
0	742514	504	148
0	743821	505	122
0	745287	506	151
0	747163	507	201
0	748699	508	145
0	750326	509	154
0	751959	510	163
0	753308	511	140
0	754914	512	147
0	756290	513	127
0	757603	514	122
0	759133	515	161
0	760611	516	149
0	762285	517	163
0	763714	518	140
0	765163	519	120
0	766678	520	133
0	767907	521	112
0	769232	522	140
0	770535	523	130
0	771927	524	139
0	773326	525	128
0	774693	526	126
0	776114	527	132
0	777817	528	146
0	779614	529	168
0	781029	530	129
0	782388	531	114
0	783826	532	155
0	785246	533	145
0	787042	534	187
0	788565	535	148
0	790033	536	137
0	791546	537	130
0	793042	538	121
0	794212	539	113
0	795497	540	121
0	797116	541	160
0	798258	542	99
0	799995	543	152
0	801300	544	112
0	802719	545	146
0	804109	546	131
0	805545	547	125
0	807244	548	166
0	808653	549	136
0	810266	550	157
0	811763	551	146
0	812923	552	105
0	814380	553	148
0	815616	554	121
0	817004	555	139
0	818665	556	146
0	819892	557	122
0	821467	558	146
0	823061	559	139
0	824346	560	111
0	825611	561	106
0	827231	562	169
0	828570	563	128
0	829964	564	133
0	831128	565	115
0	832177	566	116
0	833682	567	140
0	835453	568	174
0	836610	569	92
0	838023	570	147
0	839526	571	130
0	840792	572	115
0	842408	573	149
0	844272	574	197
0	845636	575	149
0	847346	576	159
0	848590	577	99
0	850167	578	178
0	851518	579	126
0	853064	580	148
0	854283	581	104
0	855757	582	135
0	857378	583	164
0	858703	584	138
0	860055	585	131
0	861635	586	149
0	863079	587	141
0	864787	588	153
0	866107	589	125
0	867645	590	142
0	869160	591	154
0	870786	592	151
0	872377	593	160
0	874045	594	151
0	875578	595	130
0	877124	596	151
0	879008	597	171
0	880154	598	101
0	881620	599	123
0	883464	600	210
0	885049	601	158
0	886608	602	140
0	888286	603	175
0	889519	604	118
0	891121	605	141
0	892754	606	156
0	894782	607	199
0	896096	608	129
0	897696	609	171
0	898975	610	123
0	900089	611	99
0	901230	612	94
0	902863	613	194
0	904384	614	140
0	906246	615	203
0	907768	616	135
0	909353	617	132
0	910908	618	158
0	912341	619	132
0	913895	620	158
0	915549	621	155
0	917090	622	154
0	918512	623	125
0	920076	624	161
0	921378	625	117
0	922744	626	141
0	924079	627	142
0	925425	628	143
0	926761	629	125
0	928127	630	126
0	929577	631	151
0	931137	632	167
0	932678	633	150
0	933714	634	109
0	935182	635	167
0	936525	636	112
0	938191	637	165
0	939902	638	170
0	941334	639	139
0	942773	640	129
0	944305	641	165
0	945836	642	138
0	947541	643	164
0	949049	644	153
0	950259	645	111
0	951695	646	147
0	953036	647	122
0	954538	648	161
0	955951	649	138
0	957468	650	151
0	958872	651	129
0	960317	652	130
0	961700	653	124
0	963320	654	165
0	964933	655	136
0	966353	656	141
0	967743	657	133
0	969035	658	107
0	970846	659	174
0	972236	660	142
0	973396	661	101
0	974856	662	129
0	976186	663	123
0	977529	664	134
0	979007	665	123
0	980519	666	129
0	981992	667	132
0	983674	668	163
0	985021	669	128
0	986540	670	119
0	988235	671	166
0	989719	672	149
0	991122	673	120
0	992480	674	123
0	994094	675	173
0	996081	676	204
0	997732	677	168
0	999271	678	150
0	1000729	679	153
0	1002106	680	131
0	1003534	681	123
0	1004891	682	112
0	1006490	683	138
0	1007631	684	106
0	1009334	685	152
0	1010752	686	147
0	1012129	687	120
0	1013462	688	130
0	1014859	689	132
0	1016141	690	104
0	1017600	691	122
0	1019137	692	144
0	1020557	693	145
0	1021962	694	144
0	1023224	695	119
0	1024754	696	143
0	1026464	697	143
0	1027819	698	126
0	1029157	699	107
0	1030528	700	145
0	1031660	701	113
0	1033409	702	172
0	1034718	703	124
0	1036074	704	133
0	1037558	705	147
0	1039051	706	148
0	1040688	707	166
0	1042147	708	128
0	1043524	709	118
0	1044753	710	115
0	1046435	711	165
0	1048105	712	165
0	1049268	713	116
0	1050644	714	151
0	1052139	715	146
0	1053217	716	99
0	1054964	717	170
0	1056346	718	119
0	1057886	719	145
0	1059257	720	117
0	1060757	721	137
0	1062170	722	136
0	1063391	723	106
0	1064833	724	131
0	1066362	725	154
0	1067759	726	130
0	1069240	727	130
0	1070473	728	116
0	1072024	729	156
0	1073784	730	184
0	1075112	731	143
0	1076442	732	133
0	1077739	733	118
0	1079414	734	166
0	1080732	735	123
0	1082044	736	125
0	1083772	737	155
0	1085358	738	157
0	1087172	739	187
0	1088812	740	154
0	1089905	741	86
0	1091560	742	146
0	1092934	743	123
0	1094272	744	129
0	1095704	745	123
0	1097314	746	169
0	1099146	747	195
0	1100792	748	163
0	1102100	749	127
0	1103425	750	133
0	1105117	751	173
0	1106520	752	142
0	1107956	753	131
0	1109175	754	116
0	1110867	755	173
0	1112401	756	149
0	1114050	757	158
0	1115734	758	171
0	1117374	759	149
0	1119087	760	175
0	1120345	761	105
0	1122011	762	159
0	1123552	763	146
0	1125070	764	137
0	1126490	765	145
0	1127797	766	118
0	1129231	767	121
0	1130770	768	160
0	1132021	769	110
0	1133495	770	168
0	1134947	771	139
0	1136252	772	112
0	1137793	773	132
0	1139431	774	149
0	1141178	775	164
0	1142808	776	167
0	1144241	777	132
0	1145665	778	149
0	1147381	779	173
0	1148945	780	148
0	1150509	781	157
0	1151822	782	118
0	1153186	783	135
0	1154615	784	140
0	1156138	785	146
0	1157586	786	119
0	1158865	787	120
0	1160442	788	144
0	1161785	789	134
0	1163237	790	132
0	1164540	791	128
0	1165980	792	131
0	1167397	793	142
0	1169004	794	138
0	1170449	795	122
0	1171968	796	164
0	1173573	797	162
0	1174994	798	144
0	1176470	799	149
0	1177845	800	133
0	1179333	801	141
0	1180862	802	140
0	1182323	803	136
0	1183572	804	120
0	1185142	805	163
0	1186744	806	163
0	1187927	807	104
0	1189260	808	118
0	1190628	809	123
0	1191856	810	94
0	1193422	811	151
0	1194985	812	154
0	1196147	813	117
0	1197950	814	170
0	1199370	815	125
0	1200707	816	124
0	1202264	817	170
0	1203706	818	137
0	1205197	819	164
0	1206514	820	119
0	1208140	821	171
0	1209562	822	131
0	1211017	823	142
0	1212488	824	138
0	1213943	825	150
0	1215359	826	125
0	1216911	827	157
0	1218264	828	136
0	1219502	829	103
0	1220813	830	129
0	1222426	831	168
0	1223612	832	107
0	1224914	833	131
0	1226341	834	140
0	1227949	835	155
0	1229270	836	116
0	1230774	837	151
0	1232142	838	125
0	1233885	839	176
0	1235334	840	139
0	1236879	841	158
0	1238205	842	117
0	1239588	843	134
0	1240797	844	112
0	1241982	845	112
0	1243404	846	129
0	1244800	847	127
0	1246404	848	137
0	1248196	849	157
0	1250154	850	196
0	1251445	851	112
0	1252743	852	115
0	1254306	853	134
0	1255480	854	107
0	1256993	855	156
0	1258266	856	120
0	1259777	857	152
0	1261202	858	124
0	1262639	859	130
0	1264534	860	183
0	1265856	861	111
0	1267404	862	171
0	1268831	863	146
0	1269880	864	120
0	1271239	865	122
0	1272743	866	161
0	1274551	867	187
0	1276398	868	176
0	1277695	869	118
0	1279156	870	145
0	1280805	871	172
0	1281978	872	104
0	1282997	873	100
0	1284258	874	106
0	1285803	875	152
0	1287184	876	128
0	1288806	877	147
0	1290416	878	157
0	1291793	879	144
0	1293396	880	155
0	1294730	881	139
0	1295972	882	117
0	1297574	883	161
0	1299182	884	157
0	1300578	885	127
0	1302010	886	135
0	1303455	887	158
0	1305065	888	145
0	1306658	889	172
0	1307992	890	126
0	1309438	891	143
0	1310758	892	133
0	1312362	893	147
0	1313751	894	126
0	1315469	895	171
0	1317199	896	191
0	1318921	897	171
0	1320822	898	204
0	1322090	899	147
0	1323798	900	170
0	1325457	901	178
0	1326574	902	108
0	1327649	903	118
0	1329378	904	168
0	1330816	905	125
0	1332271	906	126
0	1333579	907	107
0	1334729	908	103
0	1336094	909	124
0	1337835	910	161
0	1339254	911	142
0	1340770	912	139
0	1342219	913	132
0	1343619	914	125
0	1345179	915	145
0	1346731	916	151
0	1348219	917	153
0	1349810	918	140
0	1351420	919	141
0	1352888	920	136
0	1354500	921	147
0	1355920	922	139
0	1357153	923	126
0	1358848	924	162
0	1360288	925	143
0	1361899	926	152
0	1363214	927	114
0	1364718	928	133
0	1366223	929	148
0	1368081	930	184
0	1369289	931	109
0	1370661	932	119
0	1371872	933	114
0	1373277	934	132
0	1374799	935	135
0	1375945	936	121
0	1377736	937	188
0	1379500	938	189
0	1381184	939	177
0	1382537	940	131
0	1384054	941	144
0	1385619	942	148
0	1387178	943	146
0	1388727	944	142
0	1390168	945	144
0	1391502	946	129
0	1393221	947	174
0	1394595	948	127
0	1396077	949	151
0	1397551	950	152
0	1399306	951	168
0	1400681	952	142
0	1402128	953	146
0	1403702	954	163
0	1405222	955	149
0	1406525	956	122
0	1408034	957	146
0	1409394	958	111
0	1410514	959	103
0	1412297	960	179
0	1413899	961	147
0	1415507	962	157
0	1416967	963	141
0	1418352	964	128
0	1420137	965	202
0	1422300	966	200
0	1423384	967	99
0	1424836	968	121
0	1426303	969	134
0	1427722	970	133
0	1428930	971	95
0	1430372	972	151
0	1431734	973	139
0	1433067	974	112
0	1434642	975	138
0	1436025	976	114
0	1437585	977	165
0	1438731	978	91
0	1440197	979	131
0	1441629	980	136
0	1442798	981	120
0	1444339	982	156
0	1445842	983	136
0	1446982	984	103
0	1448214	985	123
0	1449864	986	159
0	1451348	987	131
0	1452932	988	137
0	1454377	989	160
0	1455873	990	146
0	1457259	991	137
0	1458794	992	170
0	1460400	993	169
0	1461922	994	153
0	1463628	995	161
0	1465057	996	150
0	1466373	997	141
0	1468016	998	150
0	1469634	999	147
0	1470981	1000	145
0	1472365	1001	133
0	1473932	1002	158
0	1475852	1003	175
0	1477239	1004	142
0	1478713	1005	135
0	1480296	1006	148
0	1481754	1007	131
0	1483258	1008	137
0	1484423	1009	96
0	1485776	1010	131
0	1487082	1011	131
0	1488604	1012	175
0	1490099	1013	142
0	1491912	1014	190
0	1493588	1015	139
0	1494755	1016	100
0	1496031	1017	123
0	1497489	1018	145
0	1498977	1019	157
0	1499748	1020	63
0	1500922	1021	107
0	1502318	1022	141
0	1503838	1023	125
0	1505377	1024	124
0	1507016	1025	172
0	1508457	1026	134
0	1509976	1027	152
0	1511656	1028	151
0	1513108	1029	131
0	1514721	1030	151
0	1516082	1031	128
0	1517826	1032	169
0	1519075	1033	128
0	1520494	1034	136
0	1522041	1035	148
0	1523798	1036	172
0	1525058	1037	97
0	1526422	1038	117
0	1527880	1039	135
0	1529549	1040	179
0	1531324	1041	178
0	1532925	1042	158
0	1534115	1043	113
0	1535536	1044	136
0	1537131	1045	174
0	1538343	1046	101
0	1539608	1047	110
0	1540865	1048	110
0	1542077	1049	101
0	1543520	1050	127
0	1545187	1051	162
0	1546776	1052	158
0	1548243	1053	142
0	1549920	1054	148
0	1551338	1055	123
0	1552475	1056	104
0	1553830	1057	130
0	1555391	1058	140
0	1556864	1059	136
0	1558195	1060	143
0	1559862	1061	138
0	1561120	1062	119
0	1562314	1063	107
0	1564076	1064	183
0	1565216	1065	127
0	1566499	1066	122
0	1567897	1067	137
0	1569330	1068	132
0	1570826	1069	153
0	1572584	1070	176
0	1574121	1071	160
0	1575989	1072	181
0	1577518	1073	160
0	1579204	1074	159
0	1580510	1075	129
0	1581967	1076	144
0	1583274	1077	112
0	1584727	1078	134
0	1586308	1079	152
0	1587903	1080	159
0	1589549	1081	149
0	1591050	1082	144
0	1592680	1083	159
0	1594162	1084	117
0	1595657	1085	134
0	1597451	1086	167
0	1599125	1087	167
0	1600779	1088	159
0	1602076	1089	128
0	1603680	1090	168
0	1604834	1091	99
0	1605927	1092	102
0	1607477	1093	157
0	1608971	1094	139
0	1610118	1095	108
0	1611630	1096	143
0	1613130	1097	165
0	1614651	1098	134
0	1616052	1099	138
0	1617535	1100	135
0	1618853	1101	121
0	1620649	1102	193
0	1622440	1103	166
0	1623878	1104	139
0	1625189	1105	128
0	1626713	1106	141
0	1628338	1107	150
0	1630059	1108	152
0	1631585	1109	137
0	1632697	1110	88
0	1634436	1111	188
0	1635628	1112	113
0	1637034	1113	131
0	1638292	1114	113
0	1640087	1115	186
0	1641211	1116	105
0	1643028	1117	182
0	1644359	1118	126
0	1646238	1119	170
0	1647818	1120	148
0	1649157	1121	124
0	1650702	1122	154
0	1652151	1123	140
0	1653534	1124	126
0	1654887	1125	132
0	1656108	1126	112
0	1657537	1127	142
0	1659295	1128	169
0	1660914	1129	154
0	1662332	1130	138
0	1664186	1131	199
0	1665751	1132	136
0	1667265	1133	131
0	1668930	1134	164
0	1670349	1135	116
0	1671878	1136	146
0	1673489	1137	146
0	1675431	1138	209
0	1676921	1139	161
0	1678197	1140	112
0	1679577	1141	143
0	1680973	1142	145
0	1682305	1143	127
0	1683776	1144	138
0	1685101	1145	122
0	1686434	1146	130
0	1687853	1147	156
0	1689244	1148	112
0	1690865	1149	164
0	1692464	1150	157
0	1693828	1151	105
0	1695150	1152	123
0	1696352	1153	115
0	1697617	1154	116
0	1699403	1155	171
0	1700660	1156	124
0	1702178	1157	159
0	1703499	1158	132
0	1705045	1159	147
0	1706956	1160	183
0	1708154	1161	103
0	1709655	1162	136
0	1710999	1163	131
0	1712636	1164	164
0	1713922	1165	123
0	1715265	1166	142
0	1716568	1167	118
0	1718030	1168	135
0	1719292	1169	127
0	1720942	1170	154
0	1722754	1171	177
0	1724157	1172	144
0	1725501	1173	147
0	1726883	1174	113
0	1728301	1175	125
0	1730018	1176	176
0	1731491	1177	144
0	1733313	1178	177
0	1734685	1179	123
0	1736247	1180	156
0	1737833	1181	163
0	1739433	1182	149
0	1740841	1183	125
0	1742301	1184	131
0	1743799	1185	153
0	1745195	1186	135
0	1746437	1187	123
0	1747924	1188	146
0	1749456	1189	141
0	1751115	1190	165
0	1752341	1191	135
0	1754015	1192	163
0	1755173	1193	105
0	1756446	1194	114
0	1757967	1195	152
0	1759445	1196	149
0	1760634	1197	102
0	1761890	1198	133
0	1763047	1199	92
0	1764586	1200	133
0	1766147	1201	144
0	1767613	1202	141
0	1769346	1203	166
0	1770672	1204	117
0	1771997	1205	104
0	1773556	1206	140
0	1774959	1207	126
0	1776154	1208	116
0	1777708	1209	151
0	1779482	1210	204
0	1780905	1211	124
0	1782435	1212	153
0	1783931	1213	137
0	1785604	1214	160
0	1787269	1215	166
0	1788714	1216	136
0	1790302	1217	147
0	1792125	1218	186
0	1793425	1219	137
0	1794607	1220	102
0	1796190	1221	144
0	1797609	1222	152
0	1798943	1223	131
0	1800319	1224	129
0	1801626	1225	128
0	1803465	1226	204
0	1804878	1227	138
0	1806371	1228	132
0	1807653	1229	113
0	1809180	1230	131
0	1810556	1231	137
0	1811967	1232	116
0	1813461	1233	139
0	1814851	1234	125
0	1816521	1235	163
0	1817962	1236	132
0	1819836	1237	185
0	1821406	1238	153
0	1822760	1239	137
0	1824114	1240	118
0	1825585	1241	146
0	1827167	1242	155
0	1828765	1243	157
0	1830367	1244	145
0	1831733	1245	115
0	1833074	1246	136
0	1834780	1247	173
0	1836440	1248	167
0	1838093	1249	154
0	1839461	1250	132
0	1840990	1251	134
0	1842502	1252	165
0	1843742	1253	125
0	1845334	1254	125
0	1846903	1255	156
0	1848514	1256	146
0	1850143	1257	158
0	1851522	1258	128
0	1852982	1259	151
0	1854525	1260	123
0	1855865	1261	121
0	1857432	1262	150
0	1858722	1263	115
0	1860017	1264	130
0	1861728	1265	168
0	1863077	1266	126
0	1864407	1267	115
0	1865940	1268	140
0	1867408	1269	129
0	1869004	1270	160
0	1870605	1271	160
0	1871871	1272	123
0	1873638	1273	182
0	1874841	1274	130
0	1876233	1275	123
0	1877642	1276	120
0	1879034	1277	133
0	1880609	1278	164
0	1882039	1279	153
0	1883773	1280	172
0	1885456	1281	154
0	1886988	1282	141
0	1888553	1283	160
0	1890408	1284	190
0	1891931	1285	160
0	1893321	1286	129
0	1894857	1287	153
0	1896521	1288	163
0	1898348	1289	182
0	1899620	1290	120
0	1900847	1291	120
0	1902298	1292	158
0	1903737	1293	126
0	1905219	1294	143
0	1906687	1295	143
0	1908109	1296	131
0	1909557	1297	143
0	1911344	1298	154
0	1912761	1299	136
0	1914579	1300	174
0	1916151	1301	153
0	1917420	1302	104
0	1918801	1303	136
0	1919992	1304	110
0	1921364	1305	125
0	1922804	1306	135
0	1924115	1307	128
0	1925761	1308	171
0	1927310	1309	158
0	1928948	1310	164
0	1930192	1311	97
0	1931788	1312	153
0	1933231	1313	142
0	1934597	1314	119
0	1935927	1315	115
0	1937213	1316	121
0	1938454	1317	118
0	1939748	1318	135
0	1940909	1319	122
0	1942324	1320	131
0	1943805	1321	146
0	1945077	1322	127
0	1946675	1323	143
0	1948120	1324	128
0	1949558	1325	143
0	1951574	1326	203
0	1953063	1327	146
0	1954540	1328	158
0	1955641	1329	106
0	1957228	1330	137
0	1958689	1331	136
0	1960415	1332	155
0	1961793	1333	127
0	1963066	1334	136
0	1964246	1335	107
0	1965410	1336	115
0	1966778	1337	127
0	1968416	1338	177
0	1969926	1339	159
0	1971494	1340	156
0	1972829	1341	114
0	1974810	1342	212
0	1976272	1343	137
0	1977729	1344	150
0	1979037	1345	125
0	1980561	1346	145
0	1981882	1347	146
0	1983174	1348	127
0	1984544	1349	125
0	1985808	1350	134
0	1987261	1351	144
0	1988621	1352	113
0	1989889	1353	113
0	1991220	1354	130
0	1992435	1355	108
0	1993660	1356	114
0	1994944	1357	137
0	1996536	1358	149
0	1997894	1359	143
0	1999342	1360	142
0	2000541	1361	114
0	2001783	1362	105
0	2003365	1363	161
0	2004770	1364	122
0	2006024	1365	129
0	2007383	1366	140
0	2008856	1367	144
0	2010374	1368	135
0	2011858	1369	133
0	2013500	1370	170
0	2015008	1371	119
0	2016320	1372	131
0	2017945	1373	166
0	2018987	1374	105
0	2020510	1375	146
0	2021837	1376	122
0	2023068	1377	118
0	2024597	1378	136
0	2026179	1379	151
0	2027315	1380	108
0	2028601	1381	119
0	2030219	1382	147
0	2031623	1383	133
0	2033106	1384	152
0	2034568	1385	153
0	2036291	1386	174
0	2037547	1387	129
0	2038745	1388	115
0	2040211	1389	141
0	2041619	1390	142
0	2043205	1391	159
0	2044517	1392	125
0	2046214	1393	156
0	2048135	1394	168
0	2049947	1395	165
0	2051297	1396	147
0	2052689	1397	137
0	2054297	1398	151
0	2055562	1399	140
0	2057031	1400	137
0	2058380	1401	128
0	2059842	1402	131
0	2061253	1403	140
0	2062548	1404	120
0	2064066	1405	135
0	2065178	1406	89
0	2066762	1407	151
0	2068849	1408	210
0	2070397	1409	143
0	2071693	1410	124
0	2073112	1411	124
0	2074442	1412	137
0	2076137	1413	166
0	2077554	1414	142
0	2078949	1415	138
0	2080446	1416	158
0	2081834	1417	151
0	2083154	1418	143
0	2084329	1419	118
0	2085735	1420	126
0	2086953	1421	111
0	2088216	1422	116
0	2089954	1423	179
0	2091630	1424	183
0	2093259	1425	162
0	2094967	1426	171
0	2096418	1427	138
0	2097968	1428	137
0	2099179	1429	110
0	2100588	1430	131
0	2102132	1431	151
0	2103634	1432	151
0	2105224	1433	149
0	2106685	1434	130
0	2108411	1435	191
0	2109638	1436	118
0	2111131	1437	140
0	2112548	1438	124
0	2114224	1439	163
0	2115403	1440	99
0	2116847	1441	125
0	2118516	1442	180
0	2120139	1443	152
0	2121850	1444	168
0	2123430	1445	153
0	2124698	1446	121
0	2126162	1447	145
0	2127616	1448	131
0	2129262	1449	163
0	2130576	1450	118
0	2131637	1451	88
0	2132959	1452	123
0	2134592	1453	158
0	2135851	1454	134
0	2137346	1455	140
0	2138535	1456	122
0	2140296	1457	166
0	2141534	1458	111
0	2142734	1459	99
0	2144248	1460	136
0	2145859	1461	126
0	2146931	1462	89
0	2148064	1463	106
0	2149736	1464	169
0	2150876	1465	99
0	2152096	1466	107
0	2153601	1467	136
0	2155114	1468	146
0	2156256	1469	111
0	2157829	1470	151
0	2159801	1471	205
0	2160878	1472	118
0	2162125	1473	120
0	2163548	1474	142
0	2165005	1475	144
0	2166212	1476	102
0	2167592	1477	125
0	2168880	1478	101
0	2170380	1479	161
0	2171685	1480	135
0	2173331	1481	159
0	2175069	1482	171
0	2176327	1483	123
0	2177741	1484	123
0	2179063	1485	133
0	2180448	1486	120
0	2181600	1487	105
0	2182930	1488	125
0	2184369	1489	134
0	2185856	1490	131
0	2187782	1491	173
0	2189271	1492	156
0	2190893	1493	161
0	2192283	1494	135
0	2193684	1495	142
0	2195253	1496	140
0	2196461	1497	107
0	2197914	1498	140
0	2199351	1499	138
0	2200398	1500	101
0	2201846	1501	151
0	2203398	1502	147
0	2204638	1503	105
0	2206362	1504	173
0	2207662	1505	121
0	2208942	1506	121
0	2210280	1507	123
0	2211458	1508	125
0	2212889	1509	136
0	2214167	1510	120
0	2216092	1511	176
0	2217892	1512	187
0	2219420	1513	141
0	2220961	1514	164
0	2222659	1515	193
0	2223890	1516	112
0	2225133	1517	106
0	2226734	1518	142
0	2228088	1519	151
0	2229516	1520	142
0	2230992	1521	137
0	2232636	1522	139
0	2234581	1523	196
0	2235810	1524	106
0	2237273	1525	154
0	2238638	1526	132
0	2239868	1527	115
0	2241568	1528	185
0	2242776	1529	117
0	2244482	1530	186
0	2245701	1531	122
0	2247071	1532	123
0	2248743	1533	165
0	2250102	1534	134
0	2251614	1535	149
0	2253189	1536	176
0	2254528	1537	134
0	2255776	1538	111
0	2257123	1539	124
0	2258582	1540	161
0	2259910	1541	117
0	2261223	1542	118
0	2262673	1543	149
0	2264101	1544	139
0	2265687	1545	143
0	2267092	1546	130
0	2268846	1547	173
0	2270397	1548	128
0	2271653	1549	123
0	2272812	1550	117
0	2274494	1551	163
0	2276162	1552	147
0	2277637	1553	160
0	2279224	1554	148
0	2280721	1555	142
0	2282078	1556	148
0	2283539	1557	136
0	2285028	1558	118
0	2286540	1559	135
0	2288098	1560	166
0	2289110	1561	89
0	2290607	1562	144
0	2292142	1563	146
0	2293643	1564	144
0	2295391	1565	153
0	2296682	1566	122
0	2298426	1567	173
0	2299741	1568	134
0	2301205	1569	125
0	2302416	1570	101
0	2303763	1571	130
0	2304972	1572	116
0	2306416	1573	139
0	2307531	1574	108
0	2308966	1575	134
0	2310574	1576	163
0	2312033	1577	120
0	2313820	1578	166
0	2315089	1579	122
0	2316687	1580	156
0	2318434	1581	190
0	2319746	1582	135
0	2321358	1583	161
0	2322929	1584	146
0	2324322	1585	156
0	2325837	1586	138
0	2327430	1587	146
0	2328872	1588	149
0	2330389	1589	142
0	2331644	1590	129
0	2333189	1591	144
0	2334518	1592	132
0	2336095	1593	144
0	2337766	1594	160
0	2339274	1595	151
0	2340520	1596	107
0	2341975	1597	160
0	2343401	1598	119
0	2344925	1599	145
0	2346457	1600	146
0	2347908	1601	152
0	2349142	1602	109
0	2350461	1603	126
0	2352134	1604	180
0	2353783	1605	150
0	2355523	1606	175
0	2356907	1607	137
0	2358593	1608	149
0	2359730	1609	106
0	2361329	1610	155
0	2362959	1611	169
0	2364357	1612	147
0	2365731	1613	135