version 3
run SimulationTime-7-20240107-16:14:53-10920
attr configname SimulationTime
attr datetime 20240107-16:14:53
attr datetimef 20240107-161453
attr experiment SimulationTime
attr inifile omnetpp.ini
attr iterationvars ""
attr iterationvarsd ""
attr iterationvarsf ""
attr measurement ""
attr network System
attr processid 10920
attr repetition 7
attr replication #7
attr resultdir results
attr runnumber 7
attr seedset 7
config **.cpu.rate 1000
config **.hd.rateProcessing 250
config **.webServer.web_server_rate 100
config **.p1 0.35
config **.p2 0.40
config network System
config num-rngs 4
config **.cpu.rng-0 0
config **.cpu.rng-1 1
config **.hd.rng-0 2
config **.webServer.rng-0 3
config repeat 500
config seed-set 7
config sim-time-limit 10000s
config **.client.numClients 40

vector 0 System.server.cpu requestCounterStat:vector ETV
attr recordingmode vector
attr source requestCounter
vector 1 System.server.hd utilizationHdStat:vector ETV
attr recordingmode vector
attr source utilizationHd
vector 2 System.server.cpu utilizationCpuStat:vector ETV
attr recordingmode vector
attr source utilizationCpu
vector 3 System.webServer utilizationWsStat:vector ETV
attr recordingmode vector
attr source utilizationWs
0	1965	1	178
0	3667	2	161
0	5110	3	146
0	6569	4	126
0	8058	5	136
0	9685	6	146
0	11262	7	164
0	12900	8	159
0	14795	9	182
0	16046	10	135
0	17493	11	136
0	19098	12	160
0	20588	13	147
0	22090	14	157
0	23572	15	145
0	25177	16	166
0	26813	17	167
0	28189	18	135
0	29576	19	142
0	31080	20	126
0	32655	21	146
0	34335	22	147
0	35450	23	100
0	36910	24	129
0	38465	25	162
0	40005	26	135
0	41518	27	142
0	42708	28	105
0	43800	29	95
0	45211	30	133
0	46503	31	127
0	47797	32	131
0	49097	33	123
0	50436	34	122
0	51616	35	117
0	53399	36	178
0	54894	37	142
0	56340	38	111
0	57826	39	129
0	59259	40	143
0	60507	41	127
0	61802	42	122
0	63293	43	154
0	64715	44	129
0	66002	45	108
0	67349	46	126
0	68938	47	156
0	70474	48	145
0	71824	49	131
0	73299	50	153
0	74709	51	131
0	76100	52	134
0	77541	53	140
0	79116	54	144
0	80539	55	126
0	81707	56	117
0	83193	57	145
0	84741	58	147
0	86064	59	126
0	87485	60	123
0	89182	61	176
0	90551	62	130
0	91876	63	124
0	93462	64	155
0	95146	65	179
0	96697	66	160
0	98151	67	123
0	99751	68	147
0	100939	69	121
0	102413	70	128
0	103643	71	99
0	105003	72	133
0	106187	73	121
0	107657	74	155
0	109407	75	165
0	111145	76	189
0	113034	77	204
0	114567	78	144
0	116180	79	164
0	117516	80	132
0	118783	81	110
0	120260	82	142
0	121369	83	118
0	122861	84	157
0	124123	85	115
0	126006	86	188
0	127363	87	138
0	128790	88	128
0	130249	89	130
0	131752	90	149
0	133461	91	168
0	135038	92	166
0	136474	93	133
0	138054	94	149
0	139616	95	131
0	140883	96	130
0	142042	97	98
0	143847	98	184
0	145313	99	147
0	146770	100	145
0	148313	101	164
0	149923	102	163
0	151055	103	97
0	152330	104	130
0	153673	105	126
0	155254	106	138
0	156854	107	175
0	158161	108	114
0	159712	109	154
0	160707	110	85
0	161934	111	116
0	163124	112	113
0	164593	113	148
0	166079	114	147
0	167571	115	135
0	169246	116	160
0	170578	117	121
0	171672	118	99
0	172909	119	100
0	174326	120	135
0	175507	121	112
0	177202	122	150
0	178906	123	181
0	179918	124	97
0	181054	125	107
0	182247	126	94
0	183689	127	143
0	185268	128	170
0	186622	129	135
0	188251	130	155
0	189609	131	119
0	190868	132	112
0	192508	133	163
0	194127	134	148
0	195947	135	187
0	197548	136	142
0	198746	137	111
0	200514	138	185
0	202267	139	174
0	203721	140	144
0	205200	141	154
0	206681	142	136
0	208155	143	121
0	209840	144	164
0	211384	145	159
0	213071	146	172
0	214120	147	92
0	215836	148	193
0	217360	149	149
0	218760	150	138
0	220374	151	153
0	221969	152	158
0	223424	153	150
0	224768	154	125
0	226129	155	126
0	227926	156	182
0	229154	157	125
0	230466	158	121
0	232099	159	158
0	233644	160	145
0	235145	161	132
0	236567	162	125
0	237574	163	84
0	239184	164	171
0	240816	165	141
0	242457	166	160
0	244010	167	160
0	245248	168	127
0	246731	169	150
0	248246	170	133
0	249828	171	167
0	251353	172	146
0	252678	173	114
0	254330	174	141
0	255577	175	118
0	257004	176	124
0	258375	177	128
0	259639	178	121
0	261443	179	177
0	262684	180	99
0	264100	181	131
0	265444	182	123
0	267132	183	163
0	268612	184	125
0	270327	185	162
0	272011	186	157
0	273360	187	138
0	274971	188	154
0	276179	189	101
0	277388	190	127
0	279181	191	172
0	280187	192	83
0	281586	193	146
0	282839	194	116
0	284261	195	129
0	285865	196	179
0	287068	197	114
0	288587	198	146
0	290327	199	167
0	291551	200	114
0	292787	201	113
0	294192	202	140
0	295789	203	152
0	297248	204	140
0	298701	205	134
0	300246	206	140
0	301848	207	171
0	303420	208	161
0	305098	209	167
0	306657	210	157
0	308346	211	180
0	309767	212	132
0	311299	213	143
0	312711	214	139
0	314287	215	157
0	315545	216	119
0	317000	217	130
0	318456	218	129
0	319776	219	121
0	321263	220	153
0	322569	221	133
0	323962	222	142
0	325502	223	131
0	326782	224	127
0	328425	225	156
0	330020	226	140
0	331563	227	134
0	333183	228	153
0	334597	229	135
0	336279	230	154
0	337615	231	137
0	339041	232	139
0	340593	233	169
0	341990	234	128
0	343480	235	143
0	344876	236	129
0	346477	237	144
0	347593	238	93
0	349122	239	134
0	350743	240	173
0	351898	241	102
0	353093	242	130
0	354422	243	112
0	355591	244	108
0	356962	245	118
0	358275	246	106
0	359358	247	100
0	360650	248	123
0	362387	249	182
0	363963	250	154
0	365407	251	139
0	366821	252	139
0	367908	253	112
0	369846	254	189
0	371509	255	158
0	373020	256	146
0	374370	257	123
0	375793	258	138
0	377051	259	115
0	378768	260	181
0	380056	261	127
0	381836	262	177
0	383413	263	156
0	384912	264	150
0	386469	265	128
0	387966	266	140
0	389861	267	198
0	391591	268	157
0	392881	269	109
0	394218	270	125
0	395509	271	134
0	396900	272	124
0	398530	273	159
0	399728	274	111
0	400657	275	84
0	402109	276	139
0	403463	277	117
0	404948	278	142
0	406381	279	122
0	407709	280	112
0	408826	281	92
0	409824	282	73
0	411371	283	136
0	412693	284	127
0	414213	285	145
0	415720	286	150
0	417184	287	147
0	418472	288	131
0	420081	289	164
0	421524	290	135
0	423109	291	128
0	424815	292	157
0	426276	293	140
0	427837	294	160
0	429253	295	129
0	430371	296	109
0	431858	297	140
0	433419	298	140
0	434719	299	109
0	436022	300	121
0	437530	301	137
0	439072	302	143
0	440563	303	150
0	442013	304	147
0	443353	305	121
0	444816	306	136
0	446387	307	150
0	447598	308	108
0	449260	309	175
0	451076	310	184
0	452245	311	114
0	453701	312	141
0	455274	313	154
0	456479	314	108
0	457743	315	121
0	459103	316	133
0	460727	317	165
0	462665	318	177
0	464407	319	173
0	465815	320	130
0	467439	321	159
0	468540	322	110
0	469896	323	137
0	471697	324	186
0	473089	325	121
0	474511	326	145
0	476188	327	162
0	478009	328	160
0	479272	329	122
0	480625	330	127
0	482273	331	161
0	483811	332	151
0	485387	333	177
0	487048	334	164
0	488488	335	141
0	489853	336	144
0	491259	337	129
0	492705	338	145
0	494116	339	142
0	495304	340	108
0	496725	341	108
0	498503	342	193
0	500206	343	164
0	501918	344	161
0	503488	345	145
0	504794	346	133
0	506193	347	118
0	507231	348	87
0	508700	349	136
0	509973	350	113
0	511252	351	116
0	512864	352	133
0	514557	353	182
0	515832	354	122
0	517164	355	119
0	518707	356	156
0	519974	357	128
0	521217	358	112
0	522489	359	119
0	524214	360	165
0	525671	361	138
0	527119	362	151
0	528490	363	128
0	529902	364	137
0	531608	365	165
0	533156	366	155
0	534619	367	154
0	536210	368	158
0	537590	369	155
0	538895	370	117
0	540332	371	126
0	541890	372	161
0	543188	373	123
0	544472	374	129
0	545958	375	135
0	547584	376	151
0	548872	377	125
0	550502	378	165
0	552371	379	176
0	553609	380	122
0	555043	381	141
0	556308	382	132
0	557923	383	162
0	559048	384	108
0	560364	385	133
0	561725	386	124
0	563172	387	130
0	564416	388	119
0	565679	389	116
0	567090	390	131
0	568631	391	154
0	569806	392	98
0	571146	393	129
0	572565	394	140
0	574206	395	166
0	575728	396	131
0	577547	397	198
0	579185	398	141
0	580691	399	137
0	581935	400	120
0	583302	401	124
0	584844	402	149
0	586273	403	142
0	587455	404	109
0	588651	405	121
0	590138	406	150
0	591628	407	143
0	593127	408	140
0	594425	409	125
0	595825	410	132
0	597197	411	125
0	598981	412	165
0	600643	413	159
0	602027	414	141
0	603544	415	140
0	605458	416	183
0	606796	417	117
0	608284	418	145
0	609979	419	156
0	611292	420	119
0	612700	421	139
0	613892	422	121
0	615284	423	127
0	616900	424	165
0	618452	425	141
0	620032	426	121
0	621419	427	130
0	622856	428	148
0	624518	429	199
0	625665	430	93
0	627152	431	138
0	628557	432	128
0	629909	433	137
0	631323	434	135
0	632870	435	162
0	634372	436	131
0	635921	437	160
0	637101	438	109
0	638467	439	147
0	639937	440	148
0	641445	441	153
0	642811	442	113
0	644237	443	135
0	645866	444	162
0	647043	445	110
0	648569	446	143
0	650065	447	137
0	651480	448	132
0	652755	449	124
0	654381	450	172
0	656052	451	168
0	657475	452	136
0	658954	453	146
0	660452	454	145
0	661770	455	131
0	663337	456	164
0	665378	457	188
0	666937	458	148
0	668419	459	139
0	669970	460	133
0	671495	461	144
0	672992	462	140
0	674515	463	136
0	675924	464	128
0	677577	465	166
0	678962	466	140
0	680332	467	143
0	681747	468	130
0	683178	469	126
0	684575	470	121
0	685947	471	135
0	687484	472	164
0	688930	473	141
0	690213	474	128
0	691787	475	143
0	693071	476	139
0	694764	477	174
0	696230	478	139
0	697963	479	176
0	699404	480	125
0	700918	481	125
0	702177	482	108
0	703335	483	101
0	705047	484	169
0	706438	485	122
0	707862	486	153
0	709488	487	161
0	711008	488	137
0	712365	489	134
0	713736	490	127
0	715387	491	168
0	716918	492	146
0	718297	493	142
0	719986	494	170
0	721252	495	113
0	722468	496	117
0	724059	497	160
0	725421	498	111
0	727100	499	164
0	728871	500	191
0	730597	501	175
0	731913	502	121
0	733302	503	130
0	734398	504	95
0	735599	505	106
0	736995	506	139
0	738690	507	152
0	740224	508	147
0	741766	509	149
0	743233	510	143
0	744690	511	152
0	746291	512	152
0	747863	513	145
0	749456	514	164
0	750554	515	99
0	752014	516	133
0	753414	517	141
0	755185	518	190
0	756597	519	137
0	758116	520	125
0	759699	521	150
0	761388	522	176
0	762998	523	155
0	764300	524	121
0	765809	525	142
0	767056	526	122
0	768546	527	151
0	769922	528	141
0	771220	529	123
0	772517	530	117
0	774128	531	158
0	775480	532	123
0	777019	533	134
0	778648	534	168
0	780250	535	151
0	781466	536	121
0	782591	537	120
0	783898	538	118
0	785394	539	131
0	786875	540	173
0	788288	541	144
0	789637	542	140
0	791097	543	125
0	792873	544	187
0	794381	545	149
0	795957	546	167
0	797600	547	154
0	799095	548	130
0	800512	549	140
0	801913	550	123
0	803613	551	145
0	804914	552	106
0	806634	553	177
0	808117	554	138
0	809565	555	123
0	810917	556	123
0	812265	557	139
0	813850	558	132
0	815153	559	134
0	816890	560	181
0	818548	561	141
0	819810	562	113
0	821362	563	159
0	822687	564	112
0	824171	565	125
0	825640	566	148
0	827403	567	182
0	828715	568	127
0	830065	569	143
0	831319	570	118
0	832881	571	169
0	834525	572	157
0	836377	573	185
0	837834	574	140
0	839134	575	131
0	840374	576	95
0	841791	577	134
0	843324	578	156
0	844672	579	111
0	846305	580	151
0	847539	581	115
0	848996	582	156
0	850586	583	157
0	852196	584	161
0	853914	585	175
0	855175	586	122
0	856915	587	179
0	858350	588	130
0	859975	589	158
0	861407	590	126
0	863024	591	148
0	864821	592	182
0	866314	593	134
0	867909	594	182
0	869097	595	87
0	870442	596	124
0	871993	597	144
0	873283	598	129
0	875019	599	163
0	876397	600	124
0	877783	601	119
0	879251	602	143
0	880740	603	152
0	881961	604	112
0	883223	605	115
0	884759	606	143
0	886264	607	154
0	888003	608	178
0	889696	609	160
0	890801	610	99
0	892196	611	134
0	893607	612	130
0	895178	613	150
0	896594	614	119
0	898119	615	130
0	899220	616	92
0	900627	617	122
0	901716	618	92
0	903331	619	158
0	904773	620	142
0	906207	621	131
0	907624	622	126
0	909602	623	193
0	911029	624	126
0	912405	625	119
0	913776	626	116
0	915077	627	110
0	916418	628	110
0	918202	629	177
0	919811	630	155
0	921059	631	113
0	922530	632	154
0	923947	633	144
0	925476	634	128
0	926766	635	127
0	928347	636	176
0	929871	637	153
0	931490	638	144
0	932905	639	138
0	934497	640	162
0	935703	641	99
0	937120	642	140
0	938685	643	156
0	939959	644	123
0	941770	645	178
0	943196	646	125
0	945009	647	182
0	946506	648	120
0	947985	649	154
0	949277	650	128
0	950633	651	135
0	952001	652	147
0	953586	653	142
0	955220	654	157
0	956916	655	185
0	958216	656	119
0	959657	657	162
0	961156	658	146
0	962557	659	144
0	964579	660	208
0	966441	661	183
0	967996	662	162
0	969615	663	156
0	971014	664	126
0	972499	665	146
0	973913	666	135
0	975526	667	172
0	977092	668	171
0	978610	669	125
0	979984	670	124
0	981422	671	141
0	982891	672	156
0	984390	673	144
0	985559	674	114
0	986699	675	97
0	988131	676	125
0	989354	677	100
0	990796	678	145
0	992294	679	139
0	993525	680	125
0	995194	681	164
0	996650	682	127
0	998042	683	111
0	999797	684	154
0	1000910	685	96
0	1002710	686	193
0	1004272	687	147
0	1005554	688	109
0	1007256	689	177
0	1008821	690	153
0	1009955	691	117
0	1011439	692	145
0	1012693	693	129
0	1014312	694	160
0	1015941	695	160
0	1017358	696	132
0	1019086	697	177
0	1020377	698	110
0	1021890	699	152
0	1023452	700	154
0	1025042	701	155
0	1026561	702	160
0	1027984	703	126
0	1029758	704	169
0	1031504	705	165
0	1032898	706	123
0	1034480	707	161
0	1036078	708	167
0	1037751	709	152
0	1039403	710	158
0	1040904	711	142
0	1042267	712	120
0	1043525	713	113
0	1045297	714	175
0	1047008	715	178
0	1048564	716	175
0	1049860	717	113
0	1051726	718	173
0	1053053	719	140
0	1054709	720	152
0	1055887	721	113
0	1057460	722	148
0	1058869	723	114
0	1060101	724	135
0	1061469	725	123
0	1063250	726	176
0	1064841	727	150
0	1066246	728	132
0	1067634	729	141
0	1069229	730	147
0	1070452	731	100
0	1071973	732	132
0	1073508	733	148
0	1075340	734	177
0	1076770	735	113
0	1078171	736	136
0	1079548	737	134
0	1080956	738	145
0	1082415	739	128
0	1083847	740	142
0	1085045	741	105
0	1086533	742	129
0	1088300	743	168
0	1089910	744	157
0	1091246	745	133
0	1092689	746	134
0	1094218	747	160
0	1095505	748	138
0	1096784	749	110
0	1098207	750	133
0	1099586	751	134
0	1100871	752	124
0	1102067	753	113
0	1103589	754	151
0	1105077	755	143
0	1106456	756	150
0	1107789	757	118
0	1109374	758	142
0	1110733	759	130
0	1112143	760	128
0	1113804	761	152
0	1115238	762	135
0	1116792	763	139
0	1117901	764	96
0	1119535	765	173
0	1121120	766	138
0	1122240	767	105
0	1123481	768	116
0	1124986	769	156
0	1126308	770	130
0	1127572	771	121
0	1128997	772	134
0	1130421	773	119
0	1132385	774	209
0	1133669	775	121
0	1134634	776	80
0	1136113	777	138
0	1137481	778	141
0	1139189	779	151
0	1140385	780	108
0	1141499	781	105
0	1142885	782	137
0	1144201	783	129
0	1145741	784	135
0	1147044	785	122
0	1148430	786	131
0	1149901	787	122
0	1151298	788	126
0	1152524	789	105
0	1153829	790	123
0	1155464	791	164
0	1156977	792	138
0	1158570	793	154
0	1159891	794	128
0	1161169	795	117
0	1162408	796	110
0	1164007	797	158
0	1165951	798	193
0	1167312	799	120
0	1168621	800	123
0	1170077	801	141
0	1171571	802	151
0	1173065	803	151
0	1174665	804	157
0	1175953	805	101
0	1177269	806	125
0	1178721	807	149
0	1180247	808	155
0	1181735	809	135
0	1183463	810	186
0	1184935	811	147
0	1186223	812	119
0	1187639	813	117
0	1189125	814	151
0	1190532	815	134
0	1191662	816	111
0	1193063	817	130
0	1194523	818	133
0	1195931	819	145
0	1197786	820	187
0	1199284	821	135
0	1201107	822	198
0	1202379	823	109
0	1203988	824	162
0	1205447	825	144
0	1206652	826	104
0	1208242	827	139
0	1209710	828	149
0	1211034	829	123
0	1212580	830	136
0	1214441	831	200
0	1215941	832	143
0	1217515	833	161
0	1218640	834	100
0	1220334	835	173
0	1221728	836	139
0	1222884	837	105
0	1224222	838	131
0	1225391	839	120
0	1226699	840	116
0	1228045	841	125
0	1229797	842	165
0	1231237	843	145
0	1232768	844	148
0	1234193	845	138
0	1235893	846	167
0	1237245	847	119
0	1238563	848	139
0	1239925	849	123
0	1241092	850	125
0	1242680	851	129
0	1244082	852	143
0	1245274	853	109
0	1246822	854	145
0	1248329	855	150
0	1249780	856	166
0	1251214	857	115
0	1252517	858	110
0	1253691	859	97
0	1255165	860	152
0	1256597	861	145
0	1258203	862	157
0	1259824	863	154
0	1261173	864	126
0	1262661	865	167
0	1264095	866	137
0	1265533	867	145
0	1267178	868	172
0	1268741	869	140
0	1270253	870	154
0	1271425	871	101
0	1272685	872	129
0	1274404	873	150
0	1275753	874	132
0	1277224	875	142
0	1278394	876	109
0	1279549	877	100
0	1280996	878	140
0	1282521	879	158
0	1284045	880	154
0	1285461	881	145
0	1286846	882	138
0	1288205	883	144
0	1289863	884	175
0	1291559	885	159
0	1293213	886	171
0	1294511	887	123
0	1296177	888	157
0	1297638	889	130
0	1298994	890	124
0	1300672	891	159
0	1302178	892	159
0	1303390	893	99
0	1304867	894	150
0	1306256	895	142
0	1307684	896	151
0	1309017	897	116
0	1310514	898	144
0	1311853	899	116
0	1313356	900	149
0	1314840	901	153
0	1316418	902	161
0	1317684	903	133
0	1319307	904	164
0	1320666	905	130
0	1322162	906	137
0	1323734	907	145
0	1325272	908	139
0	1326476	909	121
0	1327824	910	138
0	1329635	911	160
0	1331001	912	133
0	1332743	913	151
0	1334802	914	206
0	1336110	915	121
0	1337359	916	130
0	1338571	917	131
0	1339885	918	129
0	1341292	919	136
0	1342744	920	138
0	1344321	921	162
0	1345723	922	133
0	1347181	923	131
0	1348605	924	141
0	1350108	925	142
0	1351690	926	155
0	1352967	927	110
0	1354463	928	131
0	1355894	929	128
0	1357355	930	145
0	1359129	931	147
0	1360598	932	158
0	1361867	933	136
0	1363295	934	129
0	1365288	935	182
0	1366858	936	153
0	1368396	937	137
0	1370032	938	159
0	1371194	939	93
0	1372727	940	137
0	1374002	941	124
0	1375577	942	142
0	1376962	943	132
0	1378455	944	146
0	1380084	945	170
0	1381388	946	129
0	1383198	947	191
0	1384255	948	108
0	1385686	949	142
0	1387104	950	134
0	1388423	951	122
0	1390085	952	155
0	1391358	953	108
0	1393079	954	166
0	1394693	955	173
0	1396234	956	156
0	1397909	957	184
0	1399750	958	188
0	1401614	959	181
0	1403115	960	137
0	1404666	961	154
0	1405745	962	92
0	1406697	963	91
0	1408164	964	146
0	1409702	965	161
0	1411437	966	178
0	1412812	967	124
0	1414382	968	151
0	1415640	969	127
0	1416882	970	114
0	1418121	971	122
0	1419654	972	150
0	1421333	973	164
0	1422614	974	100
0	1423801	975	118
0	1425347	976	145
0	1426791	977	145
0	1428336	978	170
0	1429711	979	140
0	1431103	980	130
0	1432401	981	139
0	1433834	982	152
0	1435063	983	112
0	1436494	984	130
0	1438301	985	180
0	1439899	986	151
0	1441403	987	135
0	1442858	988	144
0	1444228	989	157
0	1445407	990	111
0	1446708	991	124
0	1448267	992	128
0	1449696	993	136
0	1451392	994	157
0	1452717	995	132
0	1454226	996	142
0	1455567	997	150
0	1456521	998	95
0	1457735	999	135
0	1459151	1000	136
0	1460244	1001	112
0	1461863	1002	154
0	1463295	1003	163
0	1464941	1004	153
0	1466390	1005	134
0	1467898	1006	145
0	1469274	1007	127
0	1470660	1008	133
0	1472014	1009	125
0	1473521	1010	161
0	1474880	1011	142
0	1476586	1012	175
0	1478209	1013	168
0	1479695	1014	141
0	1481270	1015	150
0	1482630	1016	125
0	1484093	1017	138
0	1485539	1018	143
0	1486867	1019	109
0	1488319	1020	136
0	1490045	1021	179
0	1491467	1022	127
0	1492897	1023	139
0	1494588	1024	170
0	1495762	1025	129
0	1497184	1026	137
0	1498649	1027	128
0	1499838	1028	104
0	1501015	1029	100
0	1502426	1030	135
0	1503852	1031	137
0	1505420	1032	155
0	1507078	1033	149
0	1508310	1034	109
0	1509481	1035	130
0	1510858	1036	132
0	1512202	1037	121
0	1513706	1038	141
0	1515159	1039	148
0	1516996	1040	199
0	1518429	1041	148
0	1519836	1042	132
0	1521355	1043	144
0	1522830	1044	142
0	1524443	1045	160
0	1525835	1046	141
0	1526935	1047	103
0	1528536	1048	148
0	1530345	1049	178
0	1531571	1050	118
0	1532924	1051	132
0	1534861	1052	184
0	1536226	1053	124
0	1537865	1054	160
0	1539334	1055	142
0	1540989	1056	190
0	1542556	1057	154
0	1543904	1058	133
0	1545078	1059	109
0	1546585	1060	145
0	1547884	1061	128
0	1549194	1062	123
0	1550434	1063	121
0	1552135	1064	160
0	1553569	1065	137
0	1554881	1066	139
0	1556390	1067	154
0	1557775	1068	114
0	1559146	1069	130
0	1560545	1070	129
0	1562187	1071	163
0	1563918	1072	194
0	1565355	1073	140
0	1566810	1074	152
0	1568155	1075	138
0	1569901	1076	163
0	1571620	1077	154
0	1573256	1078	149
0	1575086	1079	179
0	1576222	1080	92
0	1577647	1081	140
0	1579071	1082	153
0	1580586	1083	154
0	1582321	1084	158
0	1583743	1085	129
0	1585350	1086	172
0	1587126	1087	175
0	1588701	1088	152
0	1590430	1089	188
0	1591994	1090	160
0	1593161	1091	114
0	1594861	1092	157
0	1596672	1093	168
0	1598213	1094	158
0	1599440	1095	106
0	1600840	1096	129
0	1602623	1097	170
0	1604346	1098	184
0	1605950	1099	139
0	1607637	1100	147
0	1609520	1101	196
0	1611261	1102	184
0	1612750	1103	152
0	1613946	1104	107
0	1615081	1105	92
0	1616367	1106	121
0	1617695	1107	119
0	1618968	1108	120
0	1620558	1109	157
0	1622267	1110	179
0	1623799	1111	139
0	1625234	1112	122
0	1626837	1113	150
0	1628675	1114	199
0	1630296	1115	160
0	1631749	1116	140
0	1633104	1117	126
0	1634662	1118	151
0	1636039	1119	138
0	1637544	1120	145
0	1638787	1121	136
0	1640196	1122	142
0	1641633	1123	136
0	1643175	1124	149
0	1644887	1125	173
0	1646429	1126	145
0	1647830	1127	144
0	1649174	1128	121
0	1650555	1129	114
0	1651712	1130	105
0	1653063	1131	120
0	1654650	1132	152
0	1656008	1133	125
0	1657378	1134	123
0	1658953	1135	158
0	1660459	1136	149
0	1661688	1137	120
0	1663281	1138	128
0	1664710	1139	116
0	1666213	1140	135
0	1667769	1141	139
0	1669147	1142	123
0	1670738	1143	144
0	1672348	1144	161
0	1673407	1145	100
0	1674587	1146	99
0	1675920	1147	126
0	1677257	1148	138
0	1678713	1149	129
0	1680047	1150	128
0	1681502	1151	152
0	1682674	1152	99
0	1683890	1153	107
0	1685295	1154	132
0	1686366	1155	94
0	1688077	1156	184
0	1689628	1157	136
0	1691021	1158	156
0	1692615	1159	161
0	1694026	1160	119
0	1695390	1161	121
0	1697082	1162	155
0	1698918	1163	171
0	1700444	1164	141
0	1702195	1165	172
0	1703374	1166	124
0	1704711	1167	122
0	1706286	1168	170
0	1707816	1169	159
0	1709423	1170	153
0	1711162	1171	168
0	1712283	1172	106
0	1713494	1173	110
0	1714629	1174	94
0	1715953	1175	133
0	1717400	1176	146
0	1718967	1177	134
0	1720179	1178	127
0	1721778	1179	148
0	1723449	1180	161
0	1724857	1181	137
0	1726092	1182	126
0	1727361	1183	126
0	1728792	1184	130
0	1730313	1185	138
0	1731853	1186	153
0	1733187	1187	107
0	1734513	1188	135
0	1735955	1189	133
0	1737504	1190	143
0	1739128	1191	163
0	1740423	1192	124
0	1742055	1193	155
0	1743833	1194	165
0	1745366	1195	140
0	1746782	1196	139
0	1748091	1197	118
0	1749097	1198	85
0	1750469	1199	137
0	1752120	1200	189
0	1753881	1201	168
0	1755592	1202	174
0	1757032	1203	153
0	1758348	1204	125
0	1759843	1205	146
0	1761162	1206	124
0	1762494	1207	131
0	1764236	1208	171
0	1765899	1209	158
0	1767549	1210	160
0	1769155	1211	147
0	1770580	1212	132
0	1771952	1213	123
0	1773325	1214	144
0	1774877	1215	157
0	1776226	1216	116
0	1777638	1217	149
0	1779414	1218	171
0	1780867	1219	152
0	1782467	1220	166
0	1784127	1221	165
0	1785755	1222	151
0	1787250	1223	136
0	1788822	1224	145
0	1790132	1225	115
0	1791665	1226	132
0	1793354	1227	164
0	1794878	1228	127
0	1795851	1229	94
0	1797470	1230	161
0	1799375	1231	184
0	1800631	1232	133
0	1802379	1233	177
0	1803854	1234	142
0	1805501	1235	162
0	1806787	1236	115
0	1808232	1237	120
0	1809498	1238	101
0	1811161	1239	156
0	1812804	1240	157
0	1814242	1241	123
0	1816084	1242	191
0	1817478	1243	129
0	1818675	1244	112
0	1820157	1245	161
0	1821634	1246	136
0	1823259	1247	160
0	1824647	1248	139
0	1826019	1249	125
0	1827268	1250	101
0	1828468	1251	103
0	1829528	1252	103
0	1830904	1253	133
0	1832378	1254	131
0	1833609	1255	106
0	1834930	1256	116
0	1836578	1257	151
0	1837818	1258	99
0	1839209	1259	120
0	1840510	1260	119
0	1842307	1261	170
0	1843719	1262	139
0	1845130	1263	136
0	1846279	1264	120
0	1847791	1265	133
0	1849581	1266	169
0	1851093	1267	147
0	1852361	1268	125
0	1853702	1269	124
0	1855019	1270	127
0	1856787	1271	141
0	1858192	1272	114
0	1859562	1273	137
0	1860847	1274	110
0	1862300	1275	146
0	1863828	1276	163
0	1865206	1277	121
0	1866713	1278	140
0	1867919	1279	117
0	1869073	1280	106
0	1870651	1281	135
0	1871991	1282	137
0	1873686	1283	176
0	1875499	1284	172
0	1877200	1285	172
0	1878555	1286	124
0	1879943	1287	137
0	1881373	1288	159
0	1882761	1289	147
0	1884090	1290	129
0	1885588	1291	137
0	1886919	1292	124
0	1888264	1293	138
0	1889611	1294	126
0	1891156	1295	138
0	1892372	1296	115
0	1893742	1297	115
0	1895342	1298	171
0	1896947	1299	146
0	1898629	1300	168
0	1900434	1301	180
0	1901584	1302	107
0	1903126	1303	161
0	1904347	1304	106
0	1906059	1305	185
0	1907609	1306	141
0	1909008	1307	140
0	1910364	1308	111
0	1912013	1309	178
0	1913331	1310	138
0	1914830	1311	150
0	1916087	1312	130
0	1917343	1313	115
0	1918472	1314	100
0	1919895	1315	150
0	1921169	1316	119
0	1922471	1317	139
0	1923824	1318	132
0	1925346	1319	157
0	1926654	1320	122
0	1928218	1321	161
0	1929553	1322	106
0	1931084	1323	154
0	1932476	1324	101
0	1933848	1325	135
0	1935379	1326	154
0	1936591	1327	115
0	1937756	1328	108
0	1939401	1329	164
0	1941161	1330	184
0	1942558	1331	108
0	1943796	1332	127
0	1945019	1333	114
0	1946431	1334	141
0	1947711	1335	125
0	1949332	1336	152
0	1950713	1337	136
0	1952056	1338	122
0	1953444	1339	129
0	1954706	1340	142
0	1956401	1341	164
0	1957732	1342	132
0	1959379	1343	172
0	1960951	1344	151
0	1962396	1345	136
0	1964022	1346	143
0	1965512	1347	149
0	1966821	1348	126
0	1968029	1349	111
0	1969579	1350	128
0	1970730	1351	106
0	1972305	1352	134
0	1973735	1353	139
0	1975513	1354	183
0	1977146	1355	144
0	1978731	1356	168
0	1980245	1357	151
0	1981393	1358	117
0	1982812	1359	142
0	1984327	1360	159
0	1985789	1361	129
0	1987453	1362	149
0	1988863	1363	105
0	1990221	1364	147
0	1991388	1365	112
0	1992495	1366	104
0	1994025	1367	159
0	1995113	1368	101
0	1996596	1369	148
0	1997901	1370	125
0	1999653	1371	185
0	2001244	1372	172
0	2002616	1373	103
0	2003810	1374	101
0	2005223	1375	138
0	2006434	1376	120
0	2007786	1377	125
0	2008805	1378	82
0	2009929	1379	101
0	2011197	1380	120
0	2012698	1381	152
0	2014237	1382	130
0	2015541	1383	131
0	2016586	1384	94
0	2018426	1385	187
0	2019890	1386	133
0	2021153	1387	116
0	2022346	1388	108
0	2023824	1389	151
0	2025137	1390	131
0	2026308	1391	122
0	2027644	1392	113
0	2029091	1393	150
0	2030243	1394	113
0	2031846	1395	130
0	2033087	1396	108
0	2034500	1397	140
0	2036198	1398	175
0	2037221	1399	102
0	2038884	1400	169
0	2040248	1401	125
0	2041558	1402	111
0	2043044	1403	133
0	2044423	1404	130
0	2045871	1405	125
0	2047447	1406	155
0	2048837	1407	143
0	2050277	1408	129
0	2051570	1409	124
0	2053072	1410	158
0	2054531	1411	138
0	2055853	1412	133
0	2057458	1413	146
0	2059086	1414	147
0	2060365	1415	116
0	2061793	1416	131
0	2063137	1417	113
0	2065078	1418	172
0	2066813	1419	160
0	2067969	1420	92
0	2069252	1421	102
0	2070432	1422	129
0	2071729	1423	112
0	2073425	1424	157
0	2074645	1425	129
0	2076010	1426	116
0	2077563	1427	152
0	2079037	1428	151
0	2080427	1429	143
0	2081457	1430	90
0	2083102	1431	156
0	2084528	1432	145
0	2086095	1433	164
0	2087487	1434	129
0	2088927	1435	145
0	2090450	1436	134
0	2091457	1437	80
0	2092811	1438	129
0	2094290	1439	152
0	2095825	1440	153
0	2097207	1441	129
0	2098962	1442	176
0	2100319	1443	130
0	2101815	1444	141
0	2103223	1445	123
0	2104430	1446	120
0	2106146	1447	161
0	2107574	1448	115
0	2109106	1449	151
0	2110391	1450	123
0	2111541	1451	121
0	2112553	1452	75
0	2113945	1453	133
0	2115663	1454	171
0	2116807	1455	93
0	2118488	1456	156
0	2120006	1457	165
0	2121504	1458	153
0	2123261	1459	164
0	2124930	1460	161
0	2126464	1461	153
0	2127787	1462	138
0	2129091	1463	113
0	2130787	1464	161
0	2132607	1465	193
0	2134049	1466	135
0	2135819	1467	175
0	2137731	1468	205
0	2139097	1469	125
0	2140441	1470	122
0	2141947	1471	147
0	2143514	1472	164
0	2144931	1473	134
0	2146494	1474	144
0	2147927	1475	122
0	2149789	1476	193
0	2151205	1477	135
0	2152677	1478	139
0	2154054	1479	168
0	2155495	1480	133
0	2156936	1481	126
0	2158497	1482	148
0	2159832	1483	126
0	2161146	1484	129
0	2162741	1485	170
0	2163941	1486	117
0	2165388	1487	136
0	2166705	1488	126
0	2168131	1489	139
0	2169807	1490	164
0	2171629	1491	187
0	2173546	1492	170
0	2174918	1493	131
0	2176347	1494	140
0	2177676	1495	118
0	2179028	1496	127
0	2180535	1497	150
0	2182115	1498	165
0	2183658	1499	154
0	2185079	1500	147
0	2186492	1501	130
0	2187847	1502	144
0	2189304	1503	134
0	2190914	1504	165
0	2192485	1505	148
0	2194087	1506	157
0	2195791	1507	147
0	2197358	1508	148
0	2198844	1509	143
0	2200433	1510	173
0	2202072	1511	170
0	2203329	1512	134
0	2204505	1513	101
0	2205978	1514	148
0	2207507	1515	142
0	2208899	1516	129
0	2209948	1517	98
0	2211301	1518	124
0	2212682	1519	124
0	2213972	1520	126
0	2215171	1521	116
0	2216684	1522	164
0	2218234	1523	149
0	2219870	1524	165
0	2221016	1525	103
0	2222309	1526	120
0	2223666	1527	120
0	2225046	1528	127
0	2226564	1529	157
0	2228207	1530	165
0	2229842	1531	162
0	2231327	1532	132
0	2232941	1533	153
0	2234025	1534	111
0	2235574	1535	128
0	2237013	1536	150
0	2238568	1537	146
0	2240162	1538	163
0	2241458	1539	129
0	2242868	1540	122
0	2244366	1541	141
0	2245926	1542	151
0	2247559	1543	156
0	2248851	1544	129
0	2250268	1545	136
0	2251784	1546	157
0	2253304	1547	169
0	2254847	1548	144
0	2256395	1549	169
0	2257668	1550	113
0	2258963	1551	118
0	2260148	1552	112
0	2261278	1553	119
0	2262592	1554	121
0	2264058	1555	129
0	2265929	1556	182
0	2267472	1557	162
0	2268989	1558	132
0	2270612	1559	160
0	2272224	1560	144
0	2273802	1561	153
0	2275289	1562	156
0	2276697	1563	131
0	2278212	1564	142
0	2279650	1565	135
0	2281386	1566	173
0	2282881	1567	162
0	2284212	1568	134
0	2285737	1569	140
0	2287221	1570	128
0	2288694	1571	140
0	2290020	1572	123
0	2291279	1573	96
0	2292728	1574	130
0	2294018	1575	121
0	2295658	1576	171
0	2297327	1577	168
0	2298608	1578	120
0	2300009	1579	140
0	2301566	1580	159
0	2302924	1581	129
0	2304629	1582	162
0	2305880	1583	124
0	2307657	1584	174
0	2309003	1585	127
0	2310356	1586	136
0	2311842	1587	123
0	2313485	1588	162
0	2314767	1589	135
0	2316322	1590	125
0	2317680	1591	137
0	2319074	1592	137
0	2320470	1593	119
0	2321958	1594	149
0	2323246	1595	131
0	2324535	1596	122
0	2325590	1597	96
0	2326673	1598	116
0	2328306	1599	146
0	2329626	1600	148
0	2330950	1601	113
0	2332265	1602	118
0	2333793	1603	143
0	2334972	1604	112
0	2336298	1605	115
0	2338060	1606	191
0	2339535	1607	136
0	2340972	1608	146
0	2342365	1609	146
0	2343807	1610	156
0	2345513	1611	167
0	2347000	1612	150
0	2348142	1613	111
0	2349833	1614	150
0	2351423	1615	139