version 3
run SimulationTime-86-20240108-13:20:21-12968
attr configname SimulationTime
attr datetime 20240108-13:20:21
attr datetimef 20240108-132021
attr experiment SimulationTime
attr inifile omnetpp.ini
attr iterationvars ""
attr iterationvarsd ""
attr iterationvarsf ""
attr measurement ""
attr network System
attr processid 12968
attr repetition 86
attr replication #86
attr resultdir results
attr runnumber 86
attr seedset 86
config **.cpu.rate 1000
config **.hd.rateProcessing 250
config **.webServer.web_server_rate 100
config **.p1 0.35
config **.p2 0.40
config network System
config num-rngs 4
config **.cpu.rng-0 0
config **.cpu.rng-1 1
config **.hd.rng-0 2
config **.webServer.rng-0 3
config repeat 500
config seed-set 86
config sim-time-limit 10000s
config **.client.numClients 40

vector 0 System.server.cpu requestCounterStat:vector ETV
attr recordingmode vector
attr source requestCounter
vector 1 System.server.hd utilizationHdStat:vector ETV
attr recordingmode vector
attr source utilizationHd
vector 2 System.server.cpu utilizationCpuStat:vector ETV
attr recordingmode vector
attr source utilizationCpu
vector 3 System.webServer utilizationWsStat:vector ETV
attr recordingmode vector
attr source utilizationWs
0	1862	1	195
0	3357	2	150
0	4735	3	131
0	6273	4	167
0	7781	5	163
0	9321	6	145
0	10644	7	118
0	11918	8	119
0	13275	9	144
0	14678	10	139
0	16122	11	129
0	17164	12	105
0	18660	13	143
0	20071	14	132
0	21690	15	158
0	22828	16	107
0	24617	17	170
0	26371	18	177
0	28017	19	173
0	29578	20	147
0	31235	21	172
0	32903	22	165
0	34376	23	144
0	35641	24	124
0	37010	25	134
0	38441	26	132
0	39708	27	124
0	41282	28	153
0	42475	29	112
0	43830	30	117
0	45216	31	143
0	46603	32	120
0	48201	33	145
0	49449	34	119
0	50833	35	139
0	52100	36	122
0	54031	37	202
0	55509	38	151
0	56899	39	137
0	58548	40	175
0	60140	41	171
0	61538	42	131
0	62771	43	120
0	64055	44	121
0	65374	45	114
0	66648	46	95
0	68035	47	114
0	69388	48	132
0	70896	49	129
0	72396	50	140
0	74138	51	167
0	75609	52	138
0	76941	53	131
0	77953	54	71
0	79479	55	151
0	80797	56	127
0	82230	57	134
0	83714	58	143
0	85084	59	121
0	86559	60	135
0	87691	61	109
0	89135	62	129
0	90428	63	104
0	91888	64	133
0	93587	65	166
0	95109	66	137
0	96954	67	176
0	98761	68	164
0	100219	69	155
0	101854	70	143
0	103093	71	128
0	104509	72	129
0	105862	73	112
0	107594	74	185
0	108835	75	112
0	110048	76	132
0	111524	77	153
0	113113	78	164
0	114473	79	135
0	116008	80	149
0	117443	81	146
0	119022	82	138
0	120592	83	149
0	121838	84	113
0	123276	85	145
0	125000	86	151
0	126344	87	135
0	127728	88	131
0	129318	89	163
0	130984	90	134
0	132518	91	149
0	133942	92	129
0	135274	93	127
0	136627	94	128
0	137930	95	116
0	139177	96	124
0	140717	97	159
0	142373	98	185
0	143871	99	153
0	145218	100	123
0	146377	101	102
0	147549	102	115
0	149126	103	166
0	150626	104	151
0	152172	105	133
0	153871	106	160
0	155359	107	135
0	156442	108	88
0	157852	109	135
0	159240	110	134
0	160607	111	144
0	162048	112	132
0	163710	113	135
0	165383	114	164
0	166852	115	156
0	168407	116	166
0	170271	117	187
0	171420	118	116
0	173255	119	172
0	174737	120	132
0	176098	121	134
0	177641	122	152
0	179421	123	163
0	181239	124	175
0	182771	125	127
0	184328	126	140
0	185687	127	126
0	187249	128	153
0	188857	129	163
0	190244	130	137
0	191665	131	158
0	192907	132	105
0	194356	133	156
0	195683	134	110
0	197152	135	132
0	198556	136	139
0	200084	137	151
0	201523	138	138
0	203141	139	155
0	204846	140	169
0	206223	141	138
0	207453	142	105
0	208815	143	149
0	210390	144	150
0	212113	145	150
0	213444	146	134
0	214722	147	103
0	216303	148	164
0	217740	149	148
0	219397	150	151
0	221072	151	154
0	222281	152	108
0	223547	153	121
0	224823	154	135
0	226478	155	160
0	227642	156	101
0	228810	157	107
0	230399	158	164
0	231991	159	153
0	233230	160	125
0	234839	161	166
0	236263	162	135
0	237663	163	137
0	238914	164	122
0	240173	165	110
0	241426	166	120
0	243051	167	148
0	244293	168	131
0	245569	169	133
0	247137	170	146
0	248513	171	143
0	250144	172	144
0	251488	173	127
0	252950	174	127
0	254626	175	153
0	256011	176	128
0	257331	177	129
0	258885	178	163
0	260261	179	149
0	261996	180	165
0	263425	181	124
0	264889	182	145
0	266196	183	134
0	267690	184	163
0	269133	185	130
0	270815	186	167
0	272329	187	133
0	273700	188	148
0	275043	189	130
0	276446	190	121
0	277888	191	135
0	279111	192	124
0	280804	193	170
0	282309	194	160
0	284149	195	163
0	285599	196	129
0	287107	197	141
0	288726	198	162
0	290368	199	149
0	291983	200	155
0	293460	201	146
0	295112	202	149
0	296878	203	167
0	298135	204	122
0	299716	205	126
0	301134	206	139
0	302514	207	119
0	304081	208	170
0	305329	209	121
0	307033	210	172
0	308923	211	187
0	310104	212	108
0	311742	213	155
0	312882	214	97
0	314505	215	150
0	315841	216	107
0	316986	217	98
0	318226	218	125
0	319814	219	163
0	321107	220	129
0	322283	221	111
0	323677	222	133
0	325181	223	137
0	326665	224	145
0	328037	225	127
0	329654	226	158
0	331286	227	133
0	333198	228	181
0	334845	229	180
0	335991	230	120
0	337289	231	127
0	338828	232	142
0	340363	233	156
0	341751	234	133
0	343204	235	136
0	344801	236	160
0	346060	237	124
0	347756	238	161
0	349239	239	134
0	350704	240	119
0	352037	241	132
0	353533	242	141
0	354841	243	133
0	356386	244	144
0	358046	245	145
0	359553	246	142
0	361071	247	151
0	362566	248	134
0	364234	249	177
0	365620	250	126
0	366974	251	119
0	368219	252	108
0	369894	253	174
0	371151	254	112
0	372745	255	155
0	374122	256	128
0	375518	257	137
0	377349	258	170
0	378698	259	128
0	380261	260	177
0	381566	261	126
0	382721	262	116
0	384128	263	150
0	385569	264	136
0	387194	265	164
0	389015	266	172
0	390471	267	149
0	392002	268	152
0	393763	269	164
0	395364	270	153
0	397114	271	183
0	398419	272	120
0	400107	273	169
0	401395	274	129
0	403017	275	151
0	404653	276	173
0	406319	277	177
0	407839	278	145
0	409207	279	139
0	410860	280	167
0	412662	281	197
0	414503	282	210
0	416430	283	190
0	417952	284	155
0	419351	285	128
0	420874	286	140
0	422983	287	212
0	424379	288	153
0	425950	289	156
0	427301	290	143
0	428879	291	153
0	430037	292	101
0	431459	293	113
0	432932	294	154
0	434593	295	180
0	436155	296	149
0	437535	297	119
0	439274	298	172
0	440644	299	133
0	442045	300	127
0	443411	301	119
0	445133	302	163
0	446612	303	142
0	447734	304	119
0	449389	305	166
0	450938	306	156
0	452260	307	107
0	453869	308	160
0	455135	309	127
0	456853	310	156
0	458397	311	165
0	459770	312	132
0	461402	313	139
0	463112	314	167
0	464482	315	127
0	465954	316	141
0	467586	317	139
0	469246	318	171
0	470887	319	164
0	472463	320	156
0	474030	321	138
0	475219	322	112
0	476696	323	140
0	478192	324	145
0	479199	325	86
0	480665	326	135
0	482136	327	146
0	483510	328	125
0	485031	329	148
0	486783	330	180
0	488317	331	157
0	489733	332	141
0	491054	333	124
0	492369	334	118
0	494200	335	172
0	495610	336	145
0	496843	337	116
0	498413	338	153
0	499923	339	159
0	501243	340	130
0	502639	341	125
0	504104	342	160
0	505844	343	173
0	507381	344	146
0	508872	345	128
0	510197	346	114
0	511733	347	143
0	513165	348	133
0	514643	349	143
0	516012	350	143
0	517403	351	138
0	518812	352	116
0	520444	353	145
0	521678	354	123
0	523413	355	164
0	525075	356	167
0	526857	357	149
0	528155	358	119
0	529883	359	173
0	531354	360	129
0	532555	361	112
0	534182	362	148
0	535780	363	169
0	536995	364	114
0	538622	365	158
0	540281	366	174
0	541762	367	152
0	543552	368	171
0	545436	369	191
0	546876	370	134
0	548246	371	133
0	549673	372	124
0	550902	373	108
0	552535	374	158
0	554196	375	166
0	555488	376	125
0	556802	377	125
0	558393	378	152
0	560310	379	188
0	561385	380	93
0	562859	381	143
0	564094	382	122
0	565645	383	146
0	567190	384	156
0	568759	385	156
0	570460	386	156
0	571888	387	141
0	573479	388	150
0	575085	389	159
0	576610	390	159
0	578061	391	120
0	579710	392	160
0	581006	393	119
0	582447	394	140
0	583689	395	119
0	585195	396	143
0	586381	397	111
0	587833	398	133
0	589414	399	148
0	590937	400	141
0	592174	401	112
0	593582	402	135
0	595088	403	149
0	596459	404	112
0	597738	405	128
0	598888	406	115
0	600581	407	148
0	602473	408	197
0	603916	409	140
0	605628	410	158
0	606986	411	127
0	608122	412	97
0	609729	413	190
0	611338	414	146
0	612558	415	103
0	613984	416	127
0	615459	417	158
0	617206	418	168
0	618642	419	151
0	619811	420	115
0	621368	421	142
0	622945	422	156
0	624643	423	171
0	625840	424	124
0	627479	425	152
0	628975	426	169
0	630501	427	151
0	631937	428	137
0	633245	429	117
0	634606	430	123
0	636179	431	134
0	637341	432	119
0	639044	433	156
0	640380	434	125
0	641842	435	143
0	643187	436	136
0	644618	437	134
0	646381	438	182
0	648030	439	148
0	649459	440	141
0	651209	441	165
0	652406	442	104
0	653780	443	129
0	655239	444	132
0	656893	445	171
0	658135	446	111
0	659487	447	137
0	660935	448	143
0	662346	449	136
0	663685	450	123
0	665555	451	191
0	667414	452	150
0	668677	453	108
0	670083	454	147
0	671376	455	116
0	672492	456	117
0	673875	457	122
0	675527	458	157
0	677306	459	186
0	678722	460	144
0	680132	461	127
0	681294	462	95
0	682432	463	107
0	683895	464	148
0	685415	465	135
0	686876	466	148
0	688634	467	199
0	689904	468	117
0	691145	469	122
0	692665	470	160
0	694252	471	148
0	696068	472	189
0	697542	473	137
0	699099	474	164
0	700476	475	134
0	701786	476	123
0	703316	477	145
0	704535	478	118
0	705761	479	113
0	707257	480	142
0	708807	481	147
0	710104	482	128
0	711767	483	170
0	713074	484	122
0	714473	485	126
0	715991	486	153
0	717457	487	129
0	719108	488	160
0	720693	489	174
0	721811	490	112
0	723122	491	124
0	724463	492	128
0	725663	493	113
0	727382	494	176
0	728850	495	139
0	730439	496	156
0	732192	497	192
0	733788	498	149
0	735279	499	168
0	736849	500	168
0	738670	501	192
0	740063	502	122
0	741480	503	134
0	743021	504	154
0	744752	505	186
0	745879	506	94
0	746942	507	100
0	748659	508	148
0	750112	509	132
0	751275	510	105
0	752618	511	124
0	754082	512	147
0	755514	513	145
0	756815	514	144
0	758122	515	126
0	759859	516	184
0	761726	517	176
0	763093	518	126
0	764379	519	131
0	765716	520	135
0	767203	521	140
0	768775	522	153
0	769980	523	116
0	771126	524	105
0	773074	525	203
0	774143	526	104
0	775786	527	168
0	777505	528	182
0	779304	529	176
0	780530	530	114
0	782193	531	170
0	783538	532	128
0	785033	533	174
0	786558	534	152
0	788008	535	137
0	789415	536	142
0	791029	537	159
0	792458	538	130
0	793991	539	140
0	795860	540	183
0	797413	541	154
0	798865	542	133
0	800124	543	104
0	801586	544	139
0	802776	545	111
0	804164	546	149
0	805484	547	127
0	806912	548	135
0	808097	549	100
0	809598	550	153
0	811397	551	176
0	813181	552	171
0	814746	553	150
0	815963	554	108
0	817480	555	158
0	818822	556	129
0	820338	557	149
0	822031	558	172
0	823543	559	163
0	825088	560	153
0	826773	561	174
0	828474	562	162
0	829973	563	140
0	831591	564	153
0	832936	565	108
0	834415	566	136
0	835800	567	118
0	837448	568	177
0	838562	569	103
0	840015	570	147
0	841286	571	114
0	842890	572	161
0	844240	573	145
0	845496	574	111
0	846644	575	97
0	847941	576	104
0	849288	577	122
0	850700	578	133
0	852250	579	155
0	853869	580	139
0	855338	581	154
0	856284	582	107
0	857939	583	170
0	859486	584	150
0	860801	585	132
0	862162	586	134
0	863354	587	115
0	864742	588	119
0	866044	589	109
0	867514	590	144
0	869477	591	186
0	871359	592	191
0	872755	593	141
0	874230	594	140
0	875900	595	171
0	877254	596	133
0	878426	597	137
0	879713	598	118
0	881249	599	145
0	882836	600	161
0	884134	601	141
0	885651	602	138
0	887081	603	151
0	888653	604	133
0	890157	605	149
0	891561	606	129
0	893197	607	157
0	894956	608	170
0	896317	609	132
0	898093	610	150
0	899231	611	109
0	900895	612	145
0	902135	613	123
0	903557	614	129
0	904501	615	79
0	905932	616	140
0	907471	617	154
0	908892	618	132
0	910352	619	129
0	911564	620	102
0	913118	621	165
0	914525	622	122
0	915884	623	126
0	917593	624	154
0	919063	625	149
0	920318	626	118
0	921910	627	155
0	923213	628	116
0	924767	629	155
0	926171	630	140
0	927970	631	150
0	929417	632	134
0	930967	633	153
0	932538	634	138
0	933831	635	122
0	935290	636	132
0	936558	637	117
0	937926	638	135
0	939379	639	146
0	941047	640	170
0	942579	641	127
0	944464	642	184
0	945968	643	167
0	947255	644	132
0	948723	645	135
0	949928	646	112
0	951458	647	143
0	952976	648	131
0	954380	649	137
0	955717	650	127
0	957143	651	127
0	958642	652	152
0	960427	653	180
0	961935	654	155
0	963333	655	143
0	965113	656	169
0	966468	657	140
0	967635	658	108
0	969041	659	123
0	970045	660	96
0	971197	661	109
0	972557	662	131
0	973923	663	133
0	975221	664	119
0	976755	665	157
0	978147	666	123
0	979566	667	138
0	980904	668	121
0	982341	669	150
0	983841	670	148
0	985385	671	145
0	987173	672	185
0	988811	673	161
0	989969	674	103
0	991482	675	142
0	992931	676	148
0	994384	677	128
0	996205	678	166
0	997981	679	179
0	999432	680	157
0	1000987	681	134
0	1002599	682	169
0	1004273	683	149
0	1005638	684	122
0	1007233	685	148
0	1009068	686	168
0	1010505	687	140
0	1012118	688	144
0	1013312	689	103
0	1014979	690	167
0	1016673	691	165
0	1018243	692	143
0	1019624	693	120
0	1021279	694	182
0	1022726	695	140
0	1024254	696	143
0	1025767	697	156
0	1027365	698	167
0	1028974	699	140
0	1030301	700	129
0	1031508	701	112
0	1032925	702	114
0	1034329	703	119
0	1035724	704	128
0	1037336	705	161
0	1038897	706	142
0	1040418	707	138
0	1041854	708	137
0	1043380	709	139
0	1044730	710	146
0	1046485	711	172
0	1048105	712	145
0	1049752	713	154
0	1051607	714	178
0	1053157	715	131
0	1054659	716	157
0	1055928	717	116
0	1057314	718	135
0	1059027	719	190
0	1060647	720	178
0	1062099	721	139
0	1063433	722	125
0	1064865	723	141
0	1066441	724	145
0	1067941	725	137
0	1069104	726	106
0	1070687	727	136
0	1072264	728	154
0	1073898	729	167
0	1075238	730	132
0	1076642	731	147
0	1078255	732	138
0	1080049	733	195
0	1081040	734	92
0	1082485	735	134
0	1083748	736	138
0	1085052	737	123
0	1086589	738	158
0	1088104	739	140
0	1089615	740	145
0	1090794	741	110
0	1092090	742	115
0	1093677	743	152
0	1094832	744	96
0	1096018	745	119
0	1097312	746	115
0	1098798	747	135
0	1100041	748	106
0	1101526	749	140
0	1102991	750	147
0	1104154	751	110
0	1105553	752	154
0	1107240	753	162
0	1108600	754	125
0	1110283	755	158
0	1111675	756	129
0	1113143	757	139
0	1114537	758	129
0	1116120	759	150
0	1118080	760	206
0	1119361	761	132
0	1121161	762	175
0	1122389	763	91
0	1123894	764	146
0	1125433	765	154
0	1126727	766	127
0	1128143	767	123
0	1130042	768	186
0	1131438	769	135
0	1133100	770	166
0	1134574	771	131
0	1135842	772	125
0	1137489	773	154
0	1138733	774	125
0	1140364	775	166
0	1141760	776	125
0	1143345	777	152
0	1144844	778	144
0	1146076	779	107
0	1147379	780	113
0	1149062	781	174
0	1150483	782	136
0	1151743	783	117
0	1153254	784	150
0	1154766	785	159
0	1156286	786	139
0	1157817	787	168
0	1159287	788	129
0	1160904	789	166
0	1162104	790	94
0	1163244	791	87
0	1164962	792	171
0	1166605	793	172
0	1168098	794	164
0	1169441	795	124
0	1171012	796	144
0	1172575	797	134
0	1174241	798	157
0	1175959	799	149
0	1177339	800	136
0	1179073	801	159
0	1180650	802	148
0	1182001	803	126
0	1183157	804	109
0	1184521	805	121
0	1185898	806	136
0	1187590	807	157
0	1189112	808	139
0	1190891	809	174
0	1192653	810	184
0	1194090	811	140
0	1195777	812	160
0	1197370	813	158
0	1198907	814	132
0	1200340	815	144
0	1202040	816	163
0	1203542	817	141
0	1205181	818	176
0	1206691	819	155
0	1208303	820	148
0	1209501	821	109
0	1210619	822	105
0	1212031	823	143
0	1213612	824	138
0	1215254	825	163
0	1217079	826	170
0	1218813	827	175
0	1220351	828	143
0	1221716	829	136
0	1223265	830	133
0	1224719	831	153
0	1226333	832	149
0	1227856	833	150
0	1229187	834	126
0	1231227	835	203
0	1232727	836	135
0	1234237	837	137
0	1236107	838	211
0	1237692	839	162
0	1238909	840	123
0	1240397	841	139
0	1241945	842	123
0	1243113	843	107
0	1244881	844	175
0	1246544	845	166
0	1247970	846	99
0	1249346	847	135
0	1250312	848	85
0	1252169	849	172
0	1253519	850	130
0	1254886	851	142
0	1256616	852	159
0	1258018	853	127
0	1259590	854	145
0	1261236	855	151
0	1262663	856	128
0	1264119	857	151
0	1265855	858	169
0	1267202	859	122
0	1268560	860	130
0	1270123	861	154
0	1271425	862	111
0	1272966	863	134
0	1274319	864	122
0	1275716	865	116
0	1277356	866	153
0	1278936	867	159
0	1280116	868	119
0	1281777	869	136
0	1283197	870	124
0	1284431	871	115
0	1285818	872	124
0	1287400	873	159
0	1288939	874	144
0	1290339	875	143
0	1291827	876	143
0	1293118	877	116
0	1294505	878	128
0	1296105	879	159
0	1297417	880	120
0	1298993	881	141
0	1300289	882	121
0	1301791	883	153
0	1303057	884	117
0	1304552	885	148
0	1306165	886	170
0	1307604	887	144
0	1309067	888	128
0	1310389	889	119
0	1311696	890	127
0	1313268	891	145
0	1314497	892	104
0	1316147	893	165
0	1317399	894	101
0	1318706	895	116
0	1320198	896	137
0	1321670	897	137
0	1323149	898	136
0	1324748	899	154
0	1326046	900	128
0	1327397	901	122
0	1328892	902	138
0	1330426	903	135
0	1331737	904	124
0	1332819	905	93
0	1334396	906	142
0	1336047	907	168
0	1337595	908	149
0	1339245	909	147
0	1340597	910	132
0	1341928	911	130
0	1343453	912	152
0	1345122	913	160
0	1346313	914	112
0	1347621	915	131
0	1349294	916	170
0	1350815	917	156
0	1352304	918	130
0	1353814	919	141
0	1355329	920	131
0	1356473	921	115
0	1357946	922	146
0	1359157	923	112
0	1360774	924	166
0	1362433	925	166
0	1364002	926	164
0	1365604	927	163
0	1367025	928	124
0	1368498	929	156
0	1369942	930	128
0	1371122	931	105
0	1372428	932	127
0	1374202	933	183
0	1375579	934	124
0	1377024	935	132
0	1378317	936	128
0	1379776	937	158
0	1381181	938	128
0	1382824	939	152
0	1384478	940	144
0	1386026	941	145
0	1387294	942	133
0	1388790	943	161
0	1390352	944	183
0	1391932	945	161
0	1393222	946	123
0	1394897	947	156
0	1396108	948	108
0	1397845	949	170
0	1399522	950	149
0	1401322	951	189
0	1402789	952	146
0	1404147	953	117
0	1405693	954	141
0	1407313	955	149
0	1408820	956	146
0	1410142	957	123
0	1411763	958	146
0	1413328	959	170
0	1414631	960	141
0	1415791	961	109
0	1417433	962	167
0	1418825	963	153
0	1420323	964	171
0	1421748	965	136
0	1423309	966	132
0	1424915	967	145
0	1426658	968	176
0	1428106	969	141
0	1429500	970	136
0	1430863	971	120
0	1432281	972	135
0	1433782	973	168
0	1435347	974	156
0	1436845	975	131
0	1438262	976	128
0	1439608	977	141
0	1440849	978	126
0	1442748	979	184
0	1444097	980	135
0	1445555	981	141
0	1447146	982	148
0	1448529	983	132
0	1449862	984	128
0	1451060	985	107
0	1452497	986	138
0	1453734	987	134
0	1455287	988	154
0	1456665	989	133
0	1457967	990	106
0	1459365	991	151
0	1460824	992	138
0	1462530	993	147
0	1463923	994	132
0	1465593	995	175
0	1467017	996	141
0	1468178	997	120
0	1469340	998	109
0	1470780	999	121
0	1472248	1000	130
0	1473750	1001	155
0	1475260	1002	131
0	1476756	1003	167
0	1478258	1004	143
0	1479600	1005	119
0	1480835	1006	108
0	1482386	1007	156
0	1483759	1008	114
0	1485123	1009	125
0	1486550	1010	137
0	1487914	1011	143
0	1489225	1012	116
0	1490700	1013	144
0	1492037	1014	130
0	1493241	1015	109
0	1494585	1016	125
0	1496004	1017	132
0	1497346	1018	123
0	1498716	1019	115
0	1500559	1020	183
0	1502189	1021	145
0	1504002	1022	174
0	1505535	1023	144
0	1507083	1024	163
0	1508429	1025	129
0	1509818	1026	120
0	1511332	1027	153
0	1512957	1028	166
0	1514469	1029	137
0	1516172	1030	191
0	1517541	1031	126
0	1519086	1032	134
0	1520509	1033	148
0	1521725	1034	109
0	1523269	1035	169
0	1524822	1036	154
0	1526281	1037	124
0	1527942	1038	184
0	1529512	1039	159
0	1531106	1040	144
0	1532693	1041	150
0	1533752	1042	92
0	1535083	1043	128
0	1536628	1044	154
0	1538025	1045	130
0	1539422	1046	134
0	1540975	1047	146
0	1542549	1048	165
0	1544246	1049	150
0	1545820	1050	172
0	1547054	1051	113
0	1548909	1052	176
0	1550227	1053	127
0	1551856	1054	152
0	1553212	1055	121
0	1554445	1056	112
0	1556000	1057	152
0	1557451	1058	138
0	1558840	1059	128
0	1560366	1060	156
0	1561715	1061	134
0	1563537	1062	177
0	1564884	1063	118
0	1566188	1064	121
0	1567761	1065	152
0	1569303	1066	165
0	1571054	1067	174
0	1572756	1068	171
0	1574305	1069	142
0	1575694	1070	141
0	1577160	1071	119
0	1578722	1072	159
0	1580048	1073	133
0	1581439	1074	128
0	1582699	1075	115
0	1584052	1076	136
0	1585635	1077	154
0	1586961	1078	135
0	1588449	1079	145
0	1589785	1080	124
0	1591221	1081	129
0	1592734	1082	152
0	1594109	1083	134
0	1595614	1084	152
0	1597198	1085	155
0	1598938	1086	179
0	1600509	1087	154
0	1601679	1088	111
0	1603018	1089	134
0	1604490	1090	134
0	1605974	1091	151
0	1607513	1092	126
0	1608977	1093	145
0	1610424	1094	132
0	1612167	1095	180
0	1613390	1096	100
0	1614981	1097	146
0	1616706	1098	166
0	1618130	1099	131
0	1620073	1100	177
0	1621921	1101	199
0	1623231	1102	119
0	1624671	1103	145
0	1626449	1104	165
0	1628037	1105	159
0	1629390	1106	122
0	1630671	1107	112
0	1632276	1108	150
0	1633881	1109	154
0	1635155	1110	126
0	1636542	1111	132
0	1638324	1112	167
0	1639735	1113	138
0	1641077	1114	119
0	1642382	1115	128
0	1643809	1116	146
0	1645099	1117	111
0	1646460	1118	136
0	1648116	1119	169
0	1649582	1120	150
0	1650913	1121	126
0	1652422	1122	148
0	1653896	1123	141
0	1655206	1124	137
0	1656408	1125	119
0	1657747	1126	126
0	1659223	1127	135
0	1660792	1128	164
0	1662357	1129	146
0	1663631	1130	126
0	1664974	1131	128
0	1666428	1132	141
0	1667799	1133	128
0	1669497	1134	167
0	1670941	1135	123
0	1672437	1136	149
0	1673739	1137	123
0	1674999	1138	121
0	1676146	1139	102
0	1677411	1140	115
0	1678892	1141	140
0	1680285	1142	136
0	1681637	1143	141
0	1682831	1144	115
0	1684004	1145	104
0	1685449	1146	148
0	1687043	1147	151
0	1688743	1148	157
0	1690325	1149	155
0	1691675	1150	124
0	1693113	1151	125
0	1694527	1152	129
0	1695655	1153	105
0	1697189	1154	137
0	1698684	1155	138
0	1700023	1156	136
0	1701831	1157	177
0	1703294	1158	152
0	1705039	1159	172
0	1706377	1160	116
0	1707849	1161	127
0	1709284	1162	158
0	1710755	1163	140
0	1711998	1164	112
0	1713215	1165	112
0	1714446	1166	118
0	1715718	1167	127
0	1717107	1168	130
0	1718550	1169	158
0	1720387	1170	181
0	1721875	1171	163
0	1723260	1172	120
0	1724960	1173	171
0	1726503	1174	122
0	1727805	1175	129
0	1729366	1176	174
0	1730945	1177	158
0	1732568	1178	164
0	1733983	1179	134
0	1735239	1180	104
0	1736846	1181	134
0	1738241	1182	120
0	1739711	1183	137
0	1741251	1184	149
0	1742728	1185	136
0	1744412	1186	149
0	1745554	1187	119
0	1747101	1188	146
0	1748474	1189	148
0	1749783	1190	135
0	1751329	1191	147
0	1752834	1192	154
0	1754549	1193	188
0	1755878	1194	126
0	1757183	1195	120
0	1758868	1196	174
0	1760151	1197	122
0	1761850	1198	170
0	1763318	1199	133
0	1764817	1200	129
0	1766479	1201	163
0	1767948	1202	138
0	1769253	1203	126
0	1770788	1204	134
0	1772133	1205	126
0	1773608	1206	148
0	1775351	1207	172
0	1776420	1208	96
0	1777759	1209	120
0	1779443	1210	144
0	1780646	1211	110
0	1782293	1212	146
0	1783780	1213	146
0	1785238	1214	115
0	1786646	1215	125
0	1788109	1216	146
0	1789569	1217	133
0	1791293	1218	165
0	1792662	1219	132
0	1794274	1220	172
0	1795799	1221	136
0	1797401	1222	151
0	1798799	1223	123
0	1800176	1224	128
0	1801542	1225	135
0	1803119	1226	160
0	1804644	1227	136
0	1806516	1228	181
0	1807946	1229	157
0	1809441	1230	153
0	1811292	1231	188
0	1812615	1232	138
0	1814183	1233	145
0	1815918	1234	168
0	1817295	1235	122
0	1818871	1236	145
0	1820211	1237	139
0	1821924	1238	174
0	1823142	1239	115
0	1824614	1240	132
0	1825652	1241	87
0	1827119	1242	138
0	1828730	1243	150
0	1829887	1244	112
0	1831219	1245	121
0	1832588	1246	128
0	1834157	1247	152
0	1835489	1248	131
0	1837288	1249	176
0	1838790	1250	144
0	1840332	1251	149
0	1841855	1252	146
0	1843505	1253	149
0	1845108	1254	152
0	1846589	1255	136
0	1847868	1256	120
0	1849301	1257	134
0	1851284	1258	206
0	1852612	1259	123
0	1853816	1260	118
0	1855533	1261	176
0	1857314	1262	170
0	1859170	1263	195
0	1860664	1264	135
0	1861933	1265	96
0	1863516	1266	134
0	1865073	1267	152
0	1866972	1268	184
0	1868438	1269	137
0	1870061	1270	161
0	1871709	1271	165
0	1873417	1272	191
0	1874895	1273	149
0	1876488	1274	136
0	1878061	1275	148
0	1879309	1276	105
0	1880944	1277	162
0	1882134	1278	107
0	1883441	1279	126
0	1884999	1280	158
0	1886514	1281	166
0	1887846	1282	99
0	1889248	1283	145
0	1890862	1284	171
0	1892199	1285	130
0	1893925	1286	165
0	1895525	1287	165
0	1897015	1288	135
0	1898464	1289	140
0	1899849	1290	147
0	1901107	1291	103
0	1902665	1292	147
0	1904047	1293	129
0	1905447	1294	141
0	1906877	1295	137
0	1908112	1296	134
0	1909688	1297	171
0	1910990	1298	117
0	1912519	1299	130
0	1913980	1300	141
0	1915394	1301	147
0	1916894	1302	147
0	1918327	1303	140
0	1919987	1304	171
0	1921171	1305	109
0	1922658	1306	132
0	1924076	1307	123
0	1925349	1308	120
0	1927123	1309	165
0	1928704	1310	155
0	1930101	1311	120
0	1931260	1312	92
0	1932822	1313	153
0	1934481	1314	174
0	1935978	1315	134
0	1937350	1316	135
0	1938870	1317	153
0	1940306	1318	145
0	1941579	1319	110
0	1943168	1320	149
0	1944374	1321	131
0	1945818	1322	141
0	1947181	1323	116
0	1948606	1324	162
0	1949954	1325	121
0	1951176	1326	111
0	1952376	1327	125
0	1953547	1328	110
0	1955000	1329	148
0	1956352	1330	108
0	1957667	1331	102
0	1959111	1332	139
0	1960279	1333	115
0	1961534	1334	126
0	1963126	1335	161
0	1964587	1336	134
0	1966450	1337	188
0	1968082	1338	173
0	1969602	1339	147
0	1970951	1340	129
0	1972399	1341	125
0	1973875	1342	123
0	1975164	1343	118
0	1976423	1344	142
0	1978006	1345	150
0	1979278	1346	113
0	1980715	1347	128
0	1981874	1348	118
0	1983423	1349	154
0	1984739	1350	122
0	1986197	1351	129
0	1987760	1352	160
0	1989588	1353	201
0	1991055	1354	156
0	1992346	1355	122
0	1993620	1356	117
0	1995374	1357	187
0	1996761	1358	138
0	1998403	1359	175
0	1999900	1360	139
0	2001500	1361	157
0	2002903	1362	128
0	2004068	1363	104
0	2005315	1364	124
0	2006553	1365	111
0	2008138	1366	144
0	2009389	1367	130
0	2011018	1368	148
0	2013032	1369	223
0	2014465	1370	135
0	2016042	1371	130
0	2017645	1372	156
0	2019535	1373	195
0	2020911	1374	139
0	2022233	1375	125
0	2023414	1376	104
0	2024852	1377	141
0	2026458	1378	165
0	2028487	1379	212
0	2029914	1380	137
0	2031351	1381	144
0	2032684	1382	118
0	2034251	1383	132
0	2035329	1384	91
0	2037027	1385	155
0	2038621	1386	169
0	2040374	1387	166
0	2042099	1388	170
0	2043729	1389	145
0	2045222	1390	135
0	2046699	1391	144
0	2048300	1392	156
0	2049677	1393	118
0	2051130	1394	146
0	2052916	1395	177
0	2054329	1396	132
0	2055438	1397	114
0	2056984	1398	155
0	2058375	1399	122
0	2060024	1400	159
0	2061432	1401	117
0	2062734	1402	125
0	2064397	1403	180
0	2065843	1404	139
0	2067157	1405	131
0	2068744	1406	158
0	2070179	1407	142
0	2071458	1408	106
0	2073145	1409	170
0	2074633	1410	156
0	2076053	1411	125
0	2077443	1412	135
0	2078987	1413	145
0	2080598	1414	162
0	2081882	1415	125
0	2083271	1416	136
0	2084397	1417	115
0	2086214	1418	186
0	2087827	1419	150
0	2089606	1420	185
0	2091297	1421	174
0	2093130	1422	168
0	2094765	1423	172
0	2096613	1424	173
0	2098641	1425	203
0	2100352	1426	166
0	2101847	1427	154
0	2103053	1428	123
0	2104282	1429	108
0	2105550	1430	108
0	2106934	1431	121
0	2108397	1432	122
0	2109653	1433	121
0	2111145	1434	143
0	2112386	1435	114
0	2113841	1436	146
0	2115077	1437	121
0	2116410	1438	128
0	2117549	1439	102
0	2118931	1440	114
0	2120287	1441	121
0	2121712	1442	144
0	2123032	1443	117
0	2124117	1444	96
0	2125807	1445	177
0	2127209	1446	113
0	2128716	1447	158
0	2130188	1448	131
0	2131685	1449	120
0	2132711	1450	104
0	2134268	1451	166
0	2135724	1452	153
0	2137118	1453	135
0	2138620	1454	169
0	2140075	1455	138
0	2141527	1456	149
0	2143124	1457	180
0	2144660	1458	143
0	2146649	1459	202
0	2148279	1460	174
0	2149714	1461	154
0	2150813	1462	94
0	2152136	1463	124
0	2153390	1464	109
0	2154676	1465	107
0	2156027	1466	110
0	2157742	1467	166
0	2159112	1468	121
0	2160671	1469	156
0	2162032	1470	123
0	2163633	1471	152
0	2165112	1472	154
0	2166702	1473	139
0	2168046	1474	133
0	2169498	1475	149
0	2170788	1476	127
0	2172049	1477	140
0	2173580	1478	152
0	2175315	1479	164
0	2176662	1480	149
0	2178308	1481	151
0	2179555	1482	114
0	2180909	1483	135
0	2182280	1484	128
0	2183536	1485	127
0	2185254	1486	165
0	2186647	1487	118
0	2188078	1488	132
0	2189630	1489	155
0	2190872	1490	122
0	2192318	1491	135
0	2193845	1492	162
0	2195617	1493	161
0	2196837	1494	105
0	2198176	1495	122
0	2199844	1496	157
0	2201310	1497	155
0	2202571	1498	120
0	2204092	1499	156
0	2205556	1500	144
0	2206756	1501	123
0	2208254	1502	145
0	2209818	1503	157
0	2211553	1504	162
0	2212911	1505	133
0	2214622	1506	180
0	2216036	1507	109
0	2217477	1508	142
0	2218881	1509	141
0	2220105	1510	116
0	2221326	1511	124
0	2222860	1512	141
0	2224392	1513	155
0	2225749	1514	128
0	2227181	1515	137
0	2228730	1516	146
0	2230270	1517	159
0	2231685	1518	156
0	2233025	1519	127
0	2234421	1520	136
0	2235598	1521	112
0	2237001	1522	138
0	2238507	1523	141
0	2239910	1524	136
0	2241482	1525	151
0	2242858	1526	135
0	2244492	1527	171
0	2245754	1528	117
0	2247165	1529	140
0	2248845	1530	176
0	2250272	1531	134
0	2251420	1532	101
0	2253240	1533	185
0	2255182	1534	187
0	2257106	1535	195
0	2258881	1536	168
0	2260229	1537	137
0	2261727	1538	149
0	2263368	1539	140
0	2264561	1540	121
0	2266261	1541	185
0	2267894	1542	166
0	2269728	1543	181
0	2271275	1544	162
0	2272754	1545	134
0	2274329	1546	154
0	2275891	1547	141
0	2277697	1548	189
0	2278974	1549	116
0	2280579	1550	139
0	2282223	1551	165
0	2283565	1552	121
0	2284943	1553	127
0	2286839	1554	173
0	2288257	1555	121
0	2289822	1556	156
0	2291087	1557	100
0	2292653	1558	143
0	2293876	1559	118
0	2295192	1560	118
0	2296801	1561	154
0	2298320	1562	150
0	2299933	1563	160
0	2301269	1564	135
0	2302938	1565	164
0	2304693	1566	184
0	2305874	1567	114
0	2307570	1568	157
0	2309406	1569	167
0	2310883	1570	143
0	2312066	1571	102
0	2313576	1572	139
0	2315036	1573	153
0	2316425	1574	140
0	2317964	1575	150
0	2319229	1576	116
0	2320645	1577	127
0	2322497	1578	191
0	2323848	1579	130
0	2325455	1580	157
0	2326927	1581	137
0	2328546	1582	146
0	2329858	1583	141
0	2331210	1584	115
0	2333126	1585	199
0	2334796	1586	179
0	2336033	1587	104
0	2337331	1588	111
0	2339087	1589	155
0	2340598	1590	147
0	2342050	1591	117
0	2343872	1592	179
0	2345398	1593	135
0	2346955	1594	156
0	2348029	1595	111
0	2349518	1596	132
0	2351458	1597	195
0	2353205	1598	188
0	2354493	1599	125
0	2355446	1600	95
0	2356495	1601	112
0	2357991	1602	137
0	2359758	1603	206
0	2361067	1604	114
0	2362709	1605	177
0	2364019	1606	127
0	2365633	1607	151
0	2366948	1608	120
0	2368259	1609	124
0	2369514	1610	123
0	2371010	1611	163
0	2372406	1612	139
0	2373486	1613	99