version 3
run SimulationTime-36-20240108-13:19:47-376
attr configname SimulationTime
attr datetime 20240108-13:19:47
attr datetimef 20240108-131947
attr experiment SimulationTime
attr inifile omnetpp.ini
attr iterationvars ""
attr iterationvarsd ""
attr iterationvarsf ""
attr measurement ""
attr network System
attr processid 376
attr repetition 36
attr replication #36
attr resultdir results
attr runnumber 36
attr seedset 36
config **.cpu.rate 1000
config **.hd.rateProcessing 250
config **.webServer.web_server_rate 100
config **.p1 0.35
config **.p2 0.40
config network System
config num-rngs 4
config **.cpu.rng-0 0
config **.cpu.rng-1 1
config **.hd.rng-0 2
config **.webServer.rng-0 3
config repeat 500
config seed-set 36
config sim-time-limit 10000s
config **.client.numClients 40

vector 0 System.server.cpu requestCounterStat:vector ETV
attr recordingmode vector
attr source requestCounter
vector 1 System.server.hd utilizationHdStat:vector ETV
attr recordingmode vector
attr source utilizationHd
vector 2 System.server.cpu utilizationCpuStat:vector ETV
attr recordingmode vector
attr source utilizationCpu
vector 3 System.webServer utilizationWsStat:vector ETV
attr recordingmode vector
attr source utilizationWs
0	2208	1	249
0	3894	2	171
0	5208	3	137
0	6746	4	155
0	8210	5	145
0	9897	6	184
0	10972	7	98
0	12625	8	158
0	14121	9	141
0	15473	10	134
0	16882	11	116
0	18532	12	147
0	20075	13	158
0	21834	14	172
0	23448	15	147
0	24907	16	138
0	26248	17	124
0	27608	18	151
0	29283	19	170
0	30636	20	147
0	32053	21	140
0	33822	22	168
0	35485	23	160
0	36816	24	116
0	38463	25	156
0	40044	26	156
0	41113	27	98
0	42716	28	154
0	44383	29	134
0	45775	30	122
0	47114	31	116
0	48800	32	155
0	50256	33	151
0	51143	34	76
0	52580	35	144
0	53985	36	140
0	55480	37	142
0	57035	38	160
0	58567	39	147
0	59792	40	103
0	61129	41	114
0	62505	42	131
0	63832	43	130
0	65285	44	154
0	66733	45	131
0	68197	46	137
0	69872	47	178
0	71642	48	191
0	72901	49	116
0	74429	50	130
0	75877	51	161
0	77286	52	134
0	78760	53	155
0	80313	54	148
0	81758	55	130
0	83383	56	162
0	85288	57	210
0	86496	58	129
0	88209	59	156
0	89533	60	120
0	91203	61	151
0	92575	62	125
0	94242	63	160
0	95713	64	148
0	97055	65	119
0	98391	66	125
0	100083	67	181
0	101404	68	122
0	102700	69	107
0	104346	70	162
0	106070	71	163
0	107675	72	146
0	109165	73	137
0	110527	74	137
0	111943	75	141
0	113303	76	139
0	114958	77	176
0	116306	78	121
0	118172	79	163
0	119721	80	147
0	121042	81	128
0	122555	82	148
0	124048	83	138
0	125228	84	103
0	126943	85	158
0	128083	86	101
0	129713	87	155
0	131122	88	160
0	132282	89	101
0	134049	90	173
0	135595	91	139
0	137259	92	157
0	138464	93	116
0	139782	94	127
0	141004	95	121
0	142741	96	168
0	143861	97	105
0	145565	98	177
0	146996	99	140
0	148050	100	98
0	149194	101	101
0	150513	102	142
0	151944	103	134
0	153473	104	156
0	154863	105	135
0	156328	106	136
0	157796	107	129
0	158983	108	118
0	160603	109	153
0	162236	110	167
0	163567	111	118
0	164968	112	126
0	166144	113	107
0	167366	114	103
0	168589	115	102
0	169976	116	130
0	171172	117	105
0	172817	118	162
0	174540	119	176
0	175920	120	132
0	177294	121	155
0	178398	122	101
0	179859	123	156
0	181444	124	168
0	183083	125	166
0	184481	126	123
0	185772	127	128
0	187033	128	132
0	188386	129	126
0	189907	130	139
0	191504	131	156
0	193241	132	172
0	194744	133	138
0	196178	134	111
0	197691	135	140
0	198935	136	137
0	200450	137	150
0	201965	138	142
0	203511	139	163
0	205192	140	143
0	206703	141	168
0	207965	142	119
0	209531	143	153
0	210891	144	139
0	212305	145	141
0	213764	146	128
0	215048	147	119
0	216755	148	158
0	218084	149	124
0	219447	150	117
0	221038	151	172
0	222326	152	133
0	223483	153	110
0	224873	154	143
0	226539	155	139
0	227995	156	135
0	229480	157	136
0	230876	158	135
0	232222	159	137
0	233880	160	164
0	235620	161	173
0	236965	162	140
0	238633	163	151
0	240358	164	182
0	241684	165	113
0	243180	166	135
0	244310	167	95
0	245719	168	132
0	246987	169	141
0	248542	170	161
0	249973	171	132
0	251556	172	144
0	253133	173	140
0	254245	174	95
0	255857	175	167
0	256921	176	101
0	258540	177	150
0	260036	178	153
0	261281	179	122
0	262652	180	135
0	264058	181	151
0	265389	182	126
0	266482	183	104
0	268162	184	157
0	269751	185	158
0	271278	186	156
0	272728	187	143
0	274272	188	149
0	275657	189	140
0	276822	190	111
0	278233	191	128
0	279522	192	114
0	280953	193	118
0	282457	194	147
0	283853	195	135
0	285289	196	129
0	286649	197	129
0	288342	198	160
0	289499	199	116
0	290795	200	130
0	292158	201	124
0	293299	202	98
0	294842	203	126
0	296172	204	127
0	297767	205	156
0	299021	206	123
0	300460	207	138
0	301785	208	120
0	303371	209	151
0	304710	210	121
0	306313	211	154
0	307825	212	127
0	309141	213	135
0	310783	214	157
0	312290	215	156
0	314009	216	180
0	315324	217	108
0	316798	218	139
0	318157	219	122
0	319756	220	157
0	321096	221	113
0	322639	222	134
0	324182	223	138
0	325547	224	140
0	326954	225	150
0	328859	226	202
0	330549	227	153
0	332252	228	174
0	333923	229	154
0	335167	230	120
0	336628	231	122
0	337997	232	134
0	339609	233	161
0	341223	234	163
0	342881	235	153
0	344414	236	146
0	345466	237	97
0	346734	238	125
0	348286	239	139
0	349670	240	124
0	351079	241	122
0	352562	242	142
0	354015	243	142
0	355559	244	169
0	356796	245	128
0	358153	246	140
0	359837	247	165
0	361326	248	142
0	362984	249	163
0	364497	250	153
0	365724	251	104
0	367322	252	155
0	368717	253	126
0	370201	254	133
0	371706	255	144
0	373249	256	142
0	374627	257	127
0	376474	258	198
0	378374	259	201
0	379874	260	132
0	381008	261	97
0	382342	262	135
0	383934	263	147
0	385552	264	171
0	387071	265	148
0	388369	266	113
0	389883	267	135
0	391566	268	150
0	393099	269	152
0	394395	270	122
0	395924	271	154
0	397387	272	136
0	399062	273	170
0	400132	274	89
0	401598	275	155
0	403049	276	146
0	404453	277	109
0	405846	278	150
0	407375	279	150
0	408715	280	120
0	409990	281	98
0	411542	282	147
0	413281	283	156
0	414863	284	151
0	416569	285	181
0	418300	286	176
0	419944	287	153
0	421381	288	124
0	423220	289	172
0	424705	290	149
0	426151	291	131
0	427386	292	114
0	428601	293	120
0	430423	294	183
0	431830	295	134
0	433242	296	131
0	435079	297	200
0	436449	298	119
0	437795	299	143
0	439000	300	119
0	440424	301	149
0	441701	302	112
0	443025	303	133
0	444308	304	138
0	445619	305	142
0	447067	306	155
0	448745	307	169
0	450190	308	162
0	451459	309	122
0	452804	310	131
0	453831	311	90
0	455517	312	173
0	457010	313	134
0	458584	314	135
0	460184	315	159
0	461646	316	139
0	462879	317	94
0	464457	318	163
0	465679	319	107
0	467312	320	143
0	468798	321	169
0	470169	322	120
0	471542	323	130
0	473084	324	129
0	474966	325	161
0	476239	326	118
0	477416	327	104
0	478900	328	141
0	480349	329	132
0	481674	330	135
0	482956	331	135
0	484396	332	127
0	485658	333	109
0	487447	334	168
0	488807	335	137
0	490436	336	156
0	492067	337	148
0	493630	338	142
0	495336	339	167
0	496842	340	144
0	498135	341	108
0	499402	342	130
0	500856	343	155
0	502552	344	153
0	503990	345	139
0	505779	346	168
0	507653	347	209
0	509065	348	135
0	510533	349	143
0	511976	350	143
0	513465	351	154
0	514996	352	156
0	516630	353	153
0	518308	354	161
0	519453	355	112
0	520675	356	121
0	521959	357	127
0	523396	358	128
0	524939	359	148
0	526327	360	142
0	527880	361	156
0	529212	362	129
0	530715	363	130
0	532456	364	172
0	533761	365	124
0	534921	366	105
0	536189	367	123
0	537663	368	145
0	538577	369	83
0	539939	370	122
0	541594	371	166
0	542940	372	115
0	544654	373	165
0	546347	374	162
0	547933	375	151
0	549674	376	176
0	550948	377	117
0	552526	378	137
0	554279	379	184
0	555923	380	174
0	557282	381	128
0	558740	382	145
0	560401	383	146
0	562297	384	173
0	564075	385	181
0	565829	386	173
0	567295	387	127
0	568872	388	144
0	570556	389	153
0	572187	390	159
0	573826	391	156
0	575971	392	224
0	577341	393	123
0	578696	394	118
0	579921	395	122
0	581626	396	160
0	583201	397	148
0	584809	398	139
0	586677	399	179
0	588106	400	131
0	589620	401	143
0	591239	402	150
0	592804	403	166
0	594533	404	162
0	596454	405	188
0	597961	406	150
0	599469	407	157
0	600875	408	115
0	602497	409	151
0	603635	410	100
0	605199	411	153
0	606660	412	148
0	607992	413	119
0	609341	414	128
0	611153	415	153
0	612625	416	149
0	613967	417	131
0	615545	418	177
0	617252	419	164
0	618935	420	145
0	620370	421	124
0	621712	422	133
0	622885	423	96
0	624463	424	147
0	625856	425	140
0	627178	426	143
0	628461	427	130
0	629951	428	149
0	631547	429	159
0	633075	430	140
0	634462	431	120
0	636069	432	170
0	637379	433	117
0	639007	434	157
0	640187	435	103
0	641600	436	124
0	642868	437	113
0	644652	438	173
0	645931	439	110
0	647341	440	132
0	648487	441	117
0	650279	442	173
0	651978	443	184
0	653362	444	129
0	654757	445	122
0	656337	446	145
0	657697	447	117
0	659045	448	119
0	660195	449	101
0	661436	450	127
0	662787	451	122
0	664416	452	154
0	665347	453	96
0	666714	454	130
0	667909	455	130
0	669511	456	163
0	671124	457	156
0	672207	458	98
0	673638	459	146
0	675222	460	144
0	676573	461	136
0	677986	462	142
0	679604	463	155
0	681216	464	141
0	682838	465	141
0	684341	466	148
0	685705	467	107
0	687332	468	150
0	688433	469	102
0	689910	470	135
0	691405	471	154
0	692568	472	124
0	694183	473	168
0	695864	474	160
0	697651	475	166
0	699173	476	161
0	700691	477	151
0	702246	478	144
0	703635	479	118
0	704897	480	114
0	706270	481	132
0	707547	482	106
0	708944	483	124
0	710195	484	102
0	711438	485	106
0	712808	486	133
0	714279	487	144
0	715662	488	122
0	717152	489	139
0	718404	490	124
0	719547	491	98
0	721063	492	137
0	722603	493	163
0	724135	494	163
0	725509	495	129
0	727137	496	155
0	728513	497	133
0	729984	498	154
0	731328	499	133
0	732818	500	136
0	734018	501	123
0	735708	502	151
0	737195	503	150
0	739025	504	189
0	740587	505	151
0	742304	506	160
0	743636	507	127
0	745127	508	140
0	746480	509	110
0	747997	510	131
0	749423	511	133
0	750926	512	136
0	752347	513	124
0	754279	514	185
0	755521	515	119
0	757117	516	169
0	758398	517	124
0	759928	518	155
0	761254	519	123
0	762746	520	156
0	764212	521	137
0	766028	522	199
0	767579	523	142
0	768917	524	123
0	770299	525	123
0	771983	526	157
0	773648	527	150
0	775333	528	170
0	776978	529	142
0	778461	530	141
0	779831	531	133
0	781220	532	140
0	782391	533	96
0	783809	534	127
0	785147	535	135
0	786387	536	123
0	787499	537	93
0	789012	538	150
0	790408	539	139
0	791797	540	131
0	793301	541	149
0	794871	542	141
0	796356	543	136
0	798250	544	195
0	799771	545	146
0	801348	546	152
0	802602	547	119
0	803949	548	130
0	805690	549	168
0	807213	550	149
0	808646	551	114
0	810354	552	159
0	811785	553	140
0	813046	554	122
0	814028	555	97
0	815589	556	148
0	817191	557	141
0	818625	558	131
0	819904	559	128
0	821503	560	155
0	823026	561	174
0	824612	562	151
0	826364	563	173
0	828068	564	169
0	829474	565	147
0	830753	566	122
0	832375	567	135
0	833883	568	129
0	835637	569	179
0	836983	570	132
0	838481	571	125
0	839887	572	143
0	841175	573	127
0	842605	574	153
0	844393	575	167
0	846055	576	159
0	847590	577	156
0	849122	578	143
0	850369	579	126
0	852030	580	179
0	853388	581	125
0	854813	582	140
0	856309	583	145
0	857860	584	146
0	859197	585	120
0	860485	586	133
0	861675	587	119
0	862962	588	138
0	864352	589	123
0	865533	590	115
0	867110	591	168
0	868654	592	151
0	870155	593	152
0	871663	594	139
0	872893	595	123
0	874483	596	131
0	876046	597	150
0	877500	598	139
0	879044	599	143
0	880541	600	137
0	881869	601	125
0	883383	602	137
0	885218	603	172
0	886756	604	147
0	888009	605	124
0	889317	606	113
0	890506	607	112
0	891815	608	130
0	893258	609	144
0	894728	610	150
0	895878	611	105
0	897572	612	163
0	899195	613	160
0	900736	614	138
0	902339	615	144
0	903864	616	144
0	905245	617	126
0	906753	618	151
0	908062	619	140
0	909429	620	121
0	910913	621	135
0	912282	622	140
0	913742	623	135
0	915388	624	141
0	916817	625	134
0	918108	626	126
0	919492	627	137
0	921227	628	174
0	922634	629	134
0	923961	630	133
0	925324	631	132
0	926768	632	127
0	928234	633	147
0	929760	634	163
0	931112	635	133
0	932336	636	113
0	933850	637	135
0	935013	638	104
0	936412	639	142
0	937907	640	147
0	939964	641	244
0	941576	642	161
0	943023	643	134
0	944612	644	166
0	946245	645	156
0	948007	646	171
0	949408	647	118
0	950646	648	111
0	952072	649	139
0	953314	650	130
0	954634	651	133
0	956022	652	129
0	957690	653	177
0	959107	654	136
0	960697	655	149
0	962482	656	152
0	964032	657	155
0	965284	658	111
0	966506	659	123
0	967900	660	122
0	969263	661	138
0	970492	662	132
0	971592	663	101
0	972912	664	121
0	974465	665	142
0	975740	666	136
0	976724	667	87
0	978316	668	141
0	979891	669	152
0	981613	670	178
0	983408	671	170
0	984798	672	127
0	986438	673	169
0	988026	674	151
0	989152	675	105
0	990634	676	143
0	991760	677	115
0	993029	678	128
0	994460	679	130
0	995818	680	128
0	997078	681	123
0	998711	682	158
0	1000247	683	151
0	1001583	684	133
0	1002951	685	137
0	1004612	686	174
0	1005964	687	145
0	1007440	688	147
0	1009040	689	157
0	1010674	690	162
0	1012170	691	149
0	1013427	692	104
0	1014769	693	131
0	1016074	694	116
0	1017407	695	130
0	1018995	696	143
0	1020470	697	132
0	1021980	698	141
0	1023830	699	187
0	1025491	700	175
0	1026855	701	133
0	1028087	702	129
0	1029511	703	159
0	1030910	704	138
0	1032543	705	162
0	1033897	706	127
0	1035446	707	146
0	1036735	708	118
0	1038235	709	141
0	1039552	710	111
0	1040950	711	121
0	1042274	712	135
0	1044112	713	215
0	1045558	714	143
0	1046916	715	129
0	1048208	716	117
0	1049991	717	176
0	1051407	718	157
0	1052722	719	150
0	1054142	720	140
0	1055547	721	140
0	1057189	722	157
0	1059106	723	180
0	1060529	724	140
0	1061950	725	126
0	1063549	726	148
0	1064796	727	112
0	1066351	728	160
0	1067748	729	132
0	1069272	730	146
0	1070722	731	139
0	1072265	732	164
0	1073600	733	102
0	1075191	734	170
0	1076756	735	142
0	1077961	736	110
0	1079543	737	171
0	1081048	738	146
0	1082370	739	129
0	1083936	740	142
0	1085228	741	137
0	1086412	742	113
0	1087633	743	110
0	1088826	744	110
0	1090129	745	132
0	1091440	746	138
0	1092803	747	120
0	1094299	748	149
0	1095974	749	172
0	1097658	750	170
0	1099305	751	158
0	1100634	752	112
0	1102156	753	147
0	1103633	754	140
0	1105067	755	127
0	1106591	756	149
0	1108009	757	145
0	1109384	758	128
0	1110993	759	170
0	1112436	760	139
0	1114267	761	180
0	1115683	762	135
0	1116998	763	122
0	1118390	764	125
0	1119733	765	116
0	1120966	766	110
0	1122396	767	141
0	1123669	768	124
0	1125158	769	146
0	1126920	770	180
0	1127856	771	77
0	1129408	772	161
0	1131239	773	180
0	1133236	774	200
0	1134892	775	161
0	1136309	776	130
0	1137760	777	132
0	1139443	778	166
0	1140951	779	133
0	1142519	780	144
0	1143928	781	130
0	1145459	782	132
0	1146895	783	145
0	1148575	784	167
0	1149738	785	128
0	1150908	786	103
0	1152339	787	138
0	1153769	788	149
0	1154824	789	92
0	1156283	790	141
0	1157761	791	143
0	1158767	792	103
0	1160213	793	135
0	1161590	794	134
0	1162994	795	139
0	1164331	796	112
0	1166005	797	163
0	1167612	798	154
0	1169020	799	133
0	1170370	800	128
0	1171589	801	110
0	1172797	802	109
0	1174168	803	124
0	1175383	804	98
0	1176657	805	107
0	1178214	806	148
0	1179627	807	122
0	1181189	808	177
0	1182535	809	127
0	1183977	810	150
0	1185473	811	135
0	1186751	812	123
0	1188349	813	165
0	1189845	814	129
0	1191065	815	113
0	1192410	816	118
0	1193715	817	130
0	1194981	818	115
0	1196467	819	147
0	1197744	820	111
0	1198940	821	121
0	1200106	822	103
0	1201798	823	161
0	1203321	824	126
0	1204812	825	142
0	1206447	826	162
0	1208147	827	149
0	1209536	828	138
0	1210822	829	109
0	1212332	830	146
0	1213808	831	133
0	1215026	832	123
0	1216418	833	139
0	1218019	834	148
0	1219340	835	128
0	1220506	836	103
0	1221905	837	120
0	1223188	838	110
0	1224531	839	130
0	1226056	840	145
0	1227128	841	95
0	1228256	842	101
0	1229658	843	137
0	1231088	844	125
0	1232806	845	167
0	1234413	846	158
0	1235966	847	142
0	1237700	848	187
0	1239441	849	178
0	1241494	850	211
0	1243441	851	204
0	1244846	852	136
0	1246226	853	139
0	1247519	854	124
0	1248962	855	142
0	1250540	856	155
0	1252065	857	146
0	1253657	858	151
0	1255166	859	130
0	1256438	860	130
0	1257885	861	138
0	1259067	862	119
0	1260676	863	152
0	1262127	864	150
0	1263576	865	152
0	1264685	866	100
0	1266373	867	153
0	1268042	868	154
0	1269637	869	160
0	1271420	870	177
0	1272763	871	144
0	1274346	872	166
0	1275977	873	166
0	1277268	874	114
0	1279095	875	188
0	1280414	876	134
0	1282115	877	176
0	1283565	878	159
0	1284984	879	146
0	1286480	880	152
0	1287814	881	123
0	1289450	882	167
0	1291051	883	160
0	1292268	884	102
0	1293838	885	143
0	1295048	886	119
0	1296486	887	139
0	1297786	888	133
0	1299422	889	165
0	1301001	890	167
0	1302258	891	110
0	1303861	892	154
0	1305696	893	186
0	1307141	894	128
0	1308547	895	131
0	1309990	896	142
0	1311480	897	157
0	1312821	898	122
0	1314303	899	137
0	1315631	900	120
0	1317142	901	146
0	1318402	902	107
0	1319729	903	124
0	1321229	904	143
0	1322239	905	87
0	1324049	906	175
0	1325953	907	193
0	1327232	908	126
0	1328566	909	123
0	1329917	910	129
0	1331850	911	192
0	1333451	912	156
0	1335042	913	158
0	1336243	914	112
0	1337806	915	176
0	1339312	916	137
0	1340812	917	121
0	1342790	918	181
0	1344330	919	143
0	1345830	920	128
0	1347163	921	132
0	1348212	922	92
0	1349549	923	142
0	1351105	924	147
0	1352977	925	189
0	1354689	926	161
0	1356389	927	153
0	1358324	928	204
0	1359433	929	110
0	1360770	930	127
0	1362177	931	140
0	1363574	932	134
0	1365229	933	154
0	1366688	934	138
0	1368235	935	138
0	1369360	936	92
0	1370893	937	152
0	1372303	938	127
0	1373658	939	138
0	1375276	940	148
0	1376887	941	156
0	1378445	942	131
0	1380244	943	180
0	1381657	944	152
0	1382710	945	90
0	1384304	946	167
0	1385500	947	117
0	1386860	948	137
0	1388688	949	193
0	1390221	950	153
0	1391394	951	106
0	1392889	952	148
0	1394426	953	150
0	1396334	954	207
0	1397988	955	161
0	1399777	956	164
0	1401262	957	134
0	1402560	958	125
0	1404163	959	166
0	1405734	960	159
0	1407268	961	157
0	1408324	962	91
0	1409899	963	148
0	1411260	964	118
0	1412816	965	147
0	1414074	966	115
0	1415548	967	139
0	1417083	968	138
0	1418515	969	131
0	1419937	970	120
0	1421332	971	146
0	1422663	972	128
0	1424283	973	159
0	1425384	974	108
0	1426609	975	106
0	1427915	976	137
0	1429389	977	147
0	1430700	978	114
0	1432100	979	135
0	1433391	980	123
0	1434621	981	111
0	1435885	982	115
0	1437534	983	162
0	1439216	984	159
0	1440334	985	89
0	1441746	986	137
0	1443388	987	149
0	1445184	988	203
0	1446667	989	154
0	1448263	990	158
0	1450007	991	163
0	1451634	992	168
0	1452927	993	128
0	1454689	994	177
0	1456196	995	148
0	1457463	996	108
0	1458935	997	145
0	1460349	998	135
0	1461611	999	115
0	1463053	1000	150
0	1464398	1001	126
0	1465587	1002	116
0	1467380	1003	184
0	1468565	1004	104
0	1470190	1005	152
0	1471839	1006	170
0	1473237	1007	137
0	1474211	1008	93
0	1475310	1009	100
0	1476767	1010	141
0	1478187	1011	127
0	1479532	1012	108
0	1481299	1013	164
0	1482763	1014	137
0	1484022	1015	128
0	1485450	1016	141
0	1486891	1017	140
0	1488887	1018	205
0	1490193	1019	133
0	1491935	1020	178
0	1493517	1021	141
0	1495246	1022	160
0	1496483	1023	108
0	1497867	1024	127
0	1499015	1025	99
0	1500652	1026	152
0	1501867	1027	102
0	1503342	1028	120
0	1504874	1029	155
0	1506414	1030	140
0	1507861	1031	126
0	1509222	1032	114
0	1510584	1033	125
0	1512003	1034	122
0	1513469	1035	167
0	1515018	1036	156
0	1516620	1037	153
0	1517995	1038	160
0	1519469	1039	139
0	1520805	1040	118
0	1522371	1041	159
0	1523950	1042	148
0	1525349	1043	138
0	1526669	1044	129
0	1528419	1045	177
0	1530090	1046	144
0	1531736	1047	159
0	1533301	1048	152
0	1534910	1049	156
0	1536346	1050	130
0	1537790	1051	135
0	1539300	1052	137
0	1540799	1053	132
0	1542320	1054	140
0	1543715	1055	138
0	1544846	1056	118
0	1545957	1057	80
0	1547377	1058	151
0	1548786	1059	136
0	1550185	1060	123
0	1551450	1061	118
0	1552435	1062	74
0	1553884	1063	146
0	1555310	1064	123
0	1557136	1065	175
0	1558613	1066	132
0	1559839	1067	121
0	1561469	1068	173
0	1562895	1069	131
0	1564257	1070	138
0	1565760	1071	132
0	1567110	1072	141
0	1568841	1073	156
0	1569921	1074	95
0	1571688	1075	186
0	1573272	1076	147
0	1574250	1077	85
0	1575701	1078	156
0	1577309	1079	163
0	1578964	1080	141
0	1580209	1081	132
0	1581711	1082	149
0	1583190	1083	156
0	1584821	1084	154
0	1586674	1085	188
0	1588324	1086	165
0	1589701	1087	110
0	1591223	1088	147
0	1592779	1089	145
0	1594238	1090	121
0	1595570	1091	117
0	1597090	1092	159
0	1598780	1093	143
0	1600243	1094	124
0	1602139	1095	193
0	1603710	1096	154
0	1605052	1097	131
0	1606387	1098	134
0	1607981	1099	151
0	1609357	1100	136
0	1611090	1101	170
0	1612611	1102	158
0	1613823	1103	105
0	1615288	1104	128
0	1616916	1105	177
0	1618360	1106	143
0	1619905	1107	128
0	1621367	1108	135
0	1622953	1109	139
0	1624406	1110	133
0	1625823	1111	126
0	1627310	1112	132
0	1628882	1113	157
0	1630462	1114	153
0	1631938	1115	121
0	1633348	1116	135
0	1634502	1117	123
0	1635500	1118	103
0	1636692	1119	89
0	1638357	1120	137
0	1639545	1121	103
0	1640963	1122	143
0	1642238	1123	120
0	1643601	1124	136
0	1645124	1125	140
0	1646305	1126	94
0	1647949	1127	169
0	1649294	1128	134
0	1650978	1129	167
0	1652587	1130	139
0	1654038	1131	144
0	1655721	1132	166
0	1657246	1133	138
0	1658655	1134	124
0	1660214	1135	154
0	1661533	1136	118
0	1663019	1137	129
0	1664525	1138	155
0	1666122	1139	154
0	1667425	1140	123
0	1669178	1141	170
0	1670781	1142	152
0	1672455	1143	165
0	1673621	1144	115
0	1674859	1145	133
0	1676451	1146	161
0	1677781	1147	125
0	1678981	1148	109
0	1680396	1149	142
0	1681789	1150	137
0	1683065	1151	121
0	1684628	1152	168
0	1685971	1153	116
0	1687448	1154	134
0	1688757	1155	128
0	1690366	1156	150
0	1691778	1157	123
0	1693458	1158	159
0	1695084	1159	153
0	1696513	1160	125
0	1698116	1161	156
0	1700113	1162	204
0	1701683	1163	147
0	1703060	1164	128
0	1704429	1165	154
0	1705794	1166	134
0	1707222	1167	123
0	1708559	1168	138
0	1709759	1169	109
0	1711188	1170	127
0	1712237	1171	94
0	1713934	1172	142
0	1715339	1173	148
0	1716617	1174	123
0	1717927	1175	127
0	1719339	1176	133
0	1721084	1177	182
0	1722496	1178	123
0	1723669	1179	112
0	1725134	1180	159
0	1726564	1181	135
0	1727767	1182	102
0	1729179	1183	125
0	1730260	1184	92
0	1731879	1185	150
0	1733219	1186	145
0	1734568	1187	120
0	1736305	1188	178
0	1737861	1189	147
0	1739157	1190	116
0	1740578	1191	138
0	1741929	1192	136
0	1743454	1193	142
0	1744897	1194	128
0	1746534	1195	162
0	1747992	1196	129
0	1749670	1197	167
0	1751301	1198	146
0	1752621	1199	133
0	1754407	1200	174
0	1756089	1201	143
0	1757577	1202	147
0	1758957	1203	139
0	1760114	1204	104
0	1761743	1205	168
0	1763268	1206	128
0	1764812	1207	161
0	1766127	1208	116
0	1767487	1209	123
0	1768762	1210	117
0	1769899	1211	94
0	1771474	1212	150
0	1772846	1213	115
0	1774154	1214	117
0	1775637	1215	144
0	1777046	1216	142
0	1778658	1217	145
0	1780019	1218	140
0	1781388	1219	130
0	1782837	1220	125
0	1784386	1221	140
0	1785685	1222	114
0	1786942	1223	118
0	1788319	1224	134
0	1789638	1225	138
0	1791061	1226	136
0	1792743	1227	185
0	1794530	1228	170
0	1796178	1229	161
0	1797911	1230	183
0	1799465	1231	135
0	1801069	1232	159
0	1802314	1233	124
0	1803917	1234	164
0	1805185	1235	121
0	1806643	1236	147
0	1807881	1237	119
0	1809029	1238	87
0	1810665	1239	127
0	1812069	1240	148
0	1813312	1241	118
0	1814564	1242	127
0	1815981	1243	138
0	1817493	1244	147
0	1818873	1245	151
0	1820279	1246	131
0	1821646	1247	130
0	1823222	1248	161
0	1824529	1249	130
0	1826190	1250	159
0	1827603	1251	132
0	1829187	1252	157
0	1830828	1253	156
0	1831782	1254	75
0	1832979	1255	104
0	1834336	1256	124
0	1835864	1257	157
0	1837595	1258	164
0	1839389	1259	185
0	1840957	1260	160
0	1842421	1261	129
0	1843751	1262	111
0	1845420	1263	144
0	1847015	1264	146
0	1848556	1265	154
0	1850034	1266	151
0	1851352	1267	125
0	1852945	1268	164
0	1854613	1269	173
0	1855833	1270	132
0	1857522	1271	156
0	1858778	1272	113
0	1860231	1273	150
0	1861726	1274	140
0	1863219	1275	156
0	1864555	1276	139
0	1865777	1277	113
0	1867397	1278	165
0	1868641	1279	115
0	1870281	1280	170
0	1871656	1281	136
0	1873165	1282	164
0	1874588	1283	120
0	1876079	1284	138
0	1877385	1285	133
0	1879019	1286	175
0	1880801	1287	185
0	1882340	1288	138
0	1883778	1289	123
0	1885391	1290	167
0	1886641	1291	125
0	1888084	1292	140
0	1889339	1293	132
0	1891026	1294	164
0	1892459	1295	140
0	1893811	1296	119
0	1895154	1297	112
0	1896722	1298	159
0	1898085	1299	138
0	1899137	1300	80
0	1900501	1301	137
0	1901822	1302	110
0	1903665	1303	176
0	1905194	1304	158
0	1906919	1305	184
0	1908161	1306	115
0	1909793	1307	167
0	1911250	1308	138
0	1912356	1309	95
0	1913518	1310	110
0	1914810	1311	125
0	1916340	1312	147
0	1917593	1313	112
0	1918958	1314	148
0	1920577	1315	164
0	1921742	1316	110
0	1923484	1317	179
0	1924776	1318	113
0	1926206	1319	147
0	1927567	1320	141
0	1929098	1321	144
0	1930624	1322	155
0	1932028	1323	131
0	1933494	1324	165
0	1934929	1325	158
0	1936137	1326	101
0	1937337	1327	95
0	1938615	1328	113
0	1940097	1329	145
0	1941944	1330	177
0	1943042	1331	95
0	1944281	1332	116
0	1945504	1333	102
0	1947127	1334	158
0	1948282	1335	112
0	1949870	1336	159
0	1951282	1337	141
0	1952744	1338	143
0	1954151	1339	138
0	1955959	1340	184
0	1957868	1341	196
0	1959131	1342	126
0	1960813	1343	163
0	1961765	1344	77
0	1963091	1345	123
0	1964802	1346	168
0	1966422	1347	145
0	1967738	1348	109
0	1969447	1349	142
0	1971168	1350	165
0	1972296	1351	95
0	1973872	1352	141
0	1975205	1353	132
0	1976828	1354	158
0	1978274	1355	131
0	1979824	1356	145
0	1981445	1357	142
0	1982665	1358	101
0	1983874	1359	120
0	1985536	1360	162
0	1987036	1361	119
0	1988493	1362	146
0	1990117	1363	149
0	1991488	1364	144
0	1992860	1365	129
0	1994268	1366	135
0	1995423	1367	114
0	1996809	1368	115
0	1998136	1369	134
0	1999588	1370	142
0	2000866	1371	117
0	2002241	1372	114
0	2003691	1373	147
0	2005001	1374	113
0	2006733	1375	175
0	2008156	1376	142
0	2009301	1377	104
0	2010750	1378	134
0	2012074	1379	119
0	2013780	1380	156
0	2015275	1381	146
0	2016973	1382	167
0	2018575	1383	149
0	2020280	1384	156
0	2021775	1385	146
0	2023077	1386	133
0	2024660	1387	140
0	2026102	1388	143
0	2027554	1389	129
0	2028851	1390	139
0	2030309	1391	131
0	2031604	1392	116
0	2033168	1393	155
0	2034672	1394	127
0	2036241	1395	150
0	2037719	1396	153
0	2039089	1397	129
0	2040576	1398	154
0	2041960	1399	127
0	2043680	1400	158
0	2045204	1401	153
0	2046481	1402	118
0	2048076	1403	160
0	2049753	1404	194
0	2051503	1405	169
0	2053061	1406	135
0	2054457	1407	131
0	2056121	1408	147
0	2057598	1409	142
0	2059003	1410	133
0	2060478	1411	122
0	2061683	1412	102
0	2062727	1413	105
0	2063973	1414	113
0	2065316	1415	124
0	2066824	1416	127
0	2068221	1417	142
0	2069916	1418	176
0	2071594	1419	151
0	2072875	1420	115
0	2074290	1421	124
0	2076303	1422	194
0	2077877	1423	159
0	2078985	1424	101
0	2080332	1425	114
0	2081738	1426	127
0	2083661	1427	178
0	2085122	1428	128
0	2086256	1429	107
0	2087957	1430	163
0	2089141	1431	121
0	2090700	1432	150
0	2092100	1433	133
0	2093318	1434	101
0	2094925	1435	152
0	2096381	1436	147
0	2097600	1437	112
0	2099005	1438	130
0	2100580	1439	144
0	2102088	1440	152
0	2103599	1441	146
0	2105026	1442	122
0	2106558	1443	149
0	2108255	1444	172
0	2109888	1445	160
0	2111556	1446	155
0	2112770	1447	101
0	2114182	1448	129
0	2115607	1449	124
0	2117073	1450	162
0	2118491	1451	129
0	2120093	1452	161
0	2121714	1453	160
0	2123066	1454	123
0	2124615	1455	144
0	2126019	1456	143
0	2127822	1457	200
0	2129112	1458	115
0	2130531	1459	132
0	2131993	1460	154
0	2133428	1461	132
0	2134487	1462	90
0	2135965	1463	133
0	2137238	1464	116
0	2138661	1465	126
0	2139921	1466	113
0	2141754	1467	174
0	2143289	1468	138
0	2144771	1469	131
0	2146466	1470	183
0	2148073	1471	156
0	2149792	1472	174
0	2151402	1473	155
0	2152648	1474	109
0	2153893	1475	108
0	2155572	1476	166
0	2156964	1477	141
0	2158362	1478	139
0	2159843	1479	150
0	2161413	1480	146
0	2162978	1481	162
0	2164404	1482	135
0	2165673	1483	120
0	2167293	1484	165
0	2169046	1485	160
0	2170241	1486	118
0	2171504	1487	122
0	2172638	1488	103
0	2174281	1489	178
0	2175719	1490	134
0	2177247	1491	137
0	2178622	1492	130
0	2180120	1493	145
0	2181631	1494	130
0	2182833	1495	117
0	2184139	1496	131
0	2185520	1497	136
0	2187170	1498	155
0	2188607	1499	124
0	2189696	1500	87
0	2191247	1501	146
0	2192481	1502	127
0	2193820	1503	118
0	2195778	1504	215
0	2197302	1505	133
0	2198674	1506	137
0	2200096	1507	133
0	2201481	1508	146
0	2203341	1509	177
0	2204502	1510	117
0	2205895	1511	128
0	2207380	1512	134
0	2208816	1513	139
0	2210243	1514	132
0	2211630	1515	138
0	2212757	1516	98
0	2214141	1517	125
0	2215564	1518	138
0	2217060	1519	155
0	2218395	1520	131
0	2219768	1521	138
0	2221135	1522	130
0	2222449	1523	109
0	2223696	1524	114
0	2225405	1525	164
0	2226755	1526	119
0	2228389	1527	165
0	2229671	1528	105
0	2230968	1529	110
0	2232270	1530	120
0	2233458	1531	105
0	2234565	1532	106
0	2236037	1533	131
0	2237385	1534	131
0	2238627	1535	115
0	2240282	1536	154
0	2241902	1537	153
0	2243230	1538	131
0	2244741	1539	152
0	2246171	1540	128
0	2247258	1541	104
0	2248641	1542	128
0	2249642	1543	98
0	2251247	1544	174
0	2252727	1545	159
0	2254233	1546	141
0	2255524	1547	120
0	2257131	1548	154
0	2258467	1549	125
0	2259867	1550	136
0	2261366	1551	148
0	2262642	1552	111
0	2264030	1553	125
0	2265216	1554	117
0	2266496	1555	115
0	2267942	1556	135
0	2269672	1557	155
0	2270993	1558	108
0	2272435	1559	135
0	2273882	1560	141
0	2275443	1561	144
0	2276672	1562	102
0	2278143	1563	152
0	2279907	1564	185
0	2281442	1565	146
0	2282971	1566	144
0	2284471	1567	161
0	2285885	1568	119
0	2287375	1569	135
0	2288889	1570	138
0	2290449	1571	155
0	2291738	1572	126
0	2293041	1573	122
0	2294350	1574	124
0	2295577	1575	100
0	2297211	1576	141
0	2298349	1577	99
0	2299517	1578	105
0	2300936	1579	146
0	2302502	1580	142
0	2303982	1581	129
0	2305627	1582	160
0	2307040	1583	136
0	2308437	1584	136
0	2310193	1585	181
0	2311863	1586	151
0	2313301	1587	139
0	2314894	1588	150
0	2316461	1589	140
0	2318131	1590	162
0	2319304	1591	110
0	2320847	1592	138
0	2322261	1593	147
0	2323764	1594	150
0	2325107	1595	138
0	2326396	1596	112
0	2327676	1597	133
0	2329056	1598	129
0	2330532	1599	127
0	2331867	1600	123
0	2333339	1601	133
0	2334905	1602	145
0	2336244	1603	138
0	2337343	1604	106
0	2338919	1605	151
0	2340589	1606	143
0	2342118	1607	158
0	2343625	1608	130
0	2345265	1609	147
0	2346578	1610	125
0	2348339	1611	152
0	2349659	1612	137
0	2350897	1613	99
0	2352339	1614	125
0	2353883	1615	151