version 3
run SimulationTime-426-20240108-13:24:27-9768
attr configname SimulationTime
attr datetime 20240108-13:24:27
attr datetimef 20240108-132427
attr experiment SimulationTime
attr inifile omnetpp.ini
attr iterationvars ""
attr iterationvarsd ""
attr iterationvarsf ""
attr measurement ""
attr network System
attr processid 9768
attr repetition 426
attr replication #426
attr resultdir results
attr runnumber 426
attr seedset 426
config **.cpu.rate 1000
config **.hd.rateProcessing 250
config **.webServer.web_server_rate 100
config **.p1 0.35
config **.p2 0.40
config network System
config num-rngs 4
config **.cpu.rng-0 0
config **.cpu.rng-1 1
config **.hd.rng-0 2
config **.webServer.rng-0 3
config repeat 500
config seed-set 426
config sim-time-limit 10000s
config **.client.numClients 40

vector 0 System.server.cpu requestCounterStat:vector ETV
attr recordingmode vector
attr source requestCounter
vector 1 System.server.hd utilizationHdStat:vector ETV
attr recordingmode vector
attr source utilizationHd
vector 2 System.server.cpu utilizationCpuStat:vector ETV
attr recordingmode vector
attr source utilizationCpu
vector 3 System.webServer utilizationWsStat:vector ETV
attr recordingmode vector
attr source utilizationWs
0	2048	1	217
0	3552	2	149
0	5287	3	162
0	6710	4	134
0	7953	5	118
0	9427	6	147
0	10882	7	142
0	12089	8	106
0	13677	9	161
0	15142	10	131
0	16318	11	93
0	17866	12	161
0	19219	13	120
0	20401	14	107
0	21839	15	123
0	23263	16	133
0	24663	17	149
0	26034	18	116
0	27711	19	170
0	29229	20	142
0	30552	21	134
0	31958	22	111
0	33607	23	154
0	34922	24	134
0	36596	25	157
0	38206	26	155
0	39757	27	152
0	40935	28	105
0	42262	29	134
0	43645	30	129
0	45246	31	154
0	46717	32	126
0	48446	33	170
0	50120	34	171
0	52015	35	188
0	53673	36	149
0	55037	37	147
0	56215	38	121
0	57539	39	111
0	59074	40	139
0	60777	41	186
0	62462	42	188
0	64167	43	164
0	65905	44	173
0	67438	45	138
0	68750	46	121
0	70327	47	138
0	71789	48	147
0	73345	49	153
0	74855	50	136
0	76388	51	148
0	77828	52	135
0	79581	53	162
0	80810	54	104
0	82103	55	122
0	83723	56	159
0	85025	57	109
0	86345	58	127
0	87808	59	148
0	89492	60	170
0	90813	61	128
0	92323	62	151
0	93767	63	139
0	95347	64	129
0	96724	65	122
0	97911	66	106
0	99529	67	145
0	101251	68	157
0	102918	69	156
0	104206	70	104
0	105866	71	163
0	107475	72	156
0	108821	73	135
0	110396	74	162
0	111808	75	141
0	113157	76	120
0	114406	77	108
0	115709	78	118
0	117306	79	168
0	118384	80	94
0	119940	81	135
0	121452	82	147
0	122783	83	116
0	124185	84	125
0	125743	85	135
0	127280	86	152
0	128824	87	149
0	130274	88	135
0	131852	89	143
0	133123	90	113
0	134741	91	151
0	136136	92	130
0	137484	93	125
0	138781	94	112
0	140222	95	146
0	141784	96	153
0	143026	97	107
0	144290	98	111
0	145735	99	150
0	147092	100	119
0	148544	101	147
0	149928	102	127
0	151633	103	176
0	153255	104	157
0	155105	105	173
0	157011	106	181
0	158639	107	147
0	159941	108	111
0	161191	109	115
0	162457	110	120
0	163834	111	134
0	165151	112	134
0	166676	113	148
0	168393	114	170
0	169779	115	143
0	171328	116	160
0	173007	117	150
0	174318	118	116
0	175781	119	152
0	177148	120	125
0	178057	121	78
0	179340	122	112
0	180764	123	149
0	182429	124	168
0	183861	125	119
0	185448	126	152
0	187058	127	157
0	188618	128	169
0	190255	129	158
0	191705	130	130
0	192748	131	94
0	194242	132	147
0	195750	133	149
0	197123	134	120
0	198567	135	149
0	200001	136	149
0	201533	137	153
0	202814	138	114
0	204314	139	149
0	205747	140	131
0	207178	141	144
0	208372	142	131
0	209548	143	99
0	211394	144	191
0	212851	145	148
0	214244	146	132
0	215479	147	118
0	216800	148	128
0	218410	149	159
0	219986	150	130
0	221426	151	115
0	222891	152	128
0	224363	153	133
0	226264	154	212
0	227460	155	113
0	228870	156	127
0	230643	157	186
0	232115	158	147
0	233639	159	157
0	234972	160	119
0	236240	161	111
0	237652	162	135
0	239017	163	144
0	240602	164	154
0	242154	165	135
0	243466	166	121
0	245125	167	162
0	246619	168	143
0	247875	169	129
0	249370	170	149
0	250436	171	95
0	251821	172	132
0	253033	173	105
0	254347	174	133
0	256088	175	178
0	257446	176	127
0	259100	177	169
0	260563	178	152
0	262243	179	159
0	263613	180	126
0	265116	181	144
0	266814	182	155
0	268217	183	134
0	269526	184	108
0	270858	185	129
0	272075	186	126
0	273680	187	170
0	274828	188	111
0	276394	189	173
0	278004	190	162
0	279709	191	150
0	281191	192	129
0	282465	193	119
0	283792	194	102
0	285406	195	147
0	286731	196	116
0	288037	197	121
0	289797	198	159
0	291300	199	168
0	292963	200	171
0	294601	201	171
0	295926	202	124
0	297275	203	120
0	298720	204	130
0	300397	205	170
0	301896	206	134
0	303455	207	170
0	305156	208	164
0	306621	209	140
0	307942	210	117
0	309000	211	113
0	310342	212	119
0	311895	213	152
0	313532	214	144
0	314815	215	118
0	316445	216	159
0	317855	217	127
0	319581	218	155
0	321186	219	158
0	322452	220	118
0	323794	221	117
0	325372	222	163
0	326819	223	138
0	328205	224	127
0	329556	225	118
0	331102	226	151
0	332604	227	131
0	334153	228	146
0	335445	229	125
0	336782	230	129
0	338143	231	128
0	339511	232	117
0	341154	233	154
0	342814	234	169
0	343795	235	76
0	345246	236	132
0	346577	237	128
0	347785	238	105
0	349454	239	162
0	351161	240	167
0	353056	241	168
0	354580	242	147
0	355955	243	120
0	357487	244	163
0	358984	245	150
0	360159	246	104
0	361484	247	120
0	362889	248	144
0	364142	249	98
0	365403	250	119
0	366973	251	157
0	368921	252	209
0	370316	253	130
0	371882	254	155
0	373274	255	121
0	374766	256	145
0	376199	257	134
0	377669	258	149
0	379030	259	126
0	380776	260	160
0	382326	261	155
0	383913	262	150
0	385154	263	138
0	386758	264	159
0	388143	265	116
0	389707	266	161
0	391075	267	125
0	392381	268	123
0	393756	269	142
0	395125	270	127
0	396816	271	166
0	398211	272	132
0	399539	273	123
0	401015	274	135
0	402372	275	130
0	403899	276	148
0	405368	277	140
0	406751	278	132
0	408476	279	160
0	409660	280	116
0	411260	281	141
0	412693	282	152
0	414370	283	168
0	415655	284	124
0	417083	285	135
0	418671	286	159
0	420428	287	166
0	422032	288	151
0	423683	289	144
0	425320	290	171
0	426651	291	112
0	428084	292	136
0	429457	293	136
0	431198	294	162
0	432795	295	138
0	434313	296	163
0	435918	297	158
0	437502	298	163
0	438786	299	117
0	440299	300	155
0	441869	301	157
0	443049	302	123
0	444462	303	124
0	445787	304	112
0	447253	305	127
0	448760	306	142
0	450487	307	172
0	451920	308	126
0	453546	309	167
0	455026	310	148
0	456398	311	141
0	457629	312	106
0	459202	313	168
0	460828	314	155
0	462293	315	144
0	463781	316	141
0	465135	317	143
0	466425	318	127
0	467858	319	126
0	469398	320	154
0	470982	321	153
0	472519	322	140
0	474167	323	163
0	475926	324	156
0	477359	325	144
0	478747	326	149
0	480035	327	129
0	481706	328	152
0	482992	329	123
0	484377	330	133
0	485830	331	156
0	487417	332	160
0	488994	333	136
0	490903	334	196
0	492560	335	162
0	494217	336	162
0	496147	337	177
0	497769	338	143
0	499274	339	130
0	500775	340	139
0	502449	341	161
0	503819	342	141
0	505443	343	141
0	506962	344	142
0	508576	345	157
0	510367	346	194
0	511554	347	106
0	513100	348	151
0	514122	349	95
0	515412	350	118
0	516944	351	165
0	518173	352	108
0	520050	353	188
0	521730	354	171
0	523193	355	132
0	524759	356	155
0	526380	357	160
0	527962	358	133
0	529467	359	170
0	530651	360	128
0	532313	361	159
0	533856	362	144
0	535306	363	141
0	536790	364	137
0	538279	365	140
0	540084	366	172
0	541646	367	147
0	542970	368	131
0	544378	369	129
0	545938	370	152
0	547297	371	136
0	548735	372	147
0	550113	373	131
0	551465	374	141
0	553175	375	153
0	554508	376	130
0	555953	377	140
0	557377	378	141
0	558818	379	128
0	560301	380	121
0	561649	381	113
0	563095	382	123
0	564933	383	207
0	566377	384	121
0	568135	385	191
0	569630	386	146
0	571275	387	162
0	572676	388	142
0	574157	389	140
0	575589	390	136
0	576892	391	114
0	578282	392	139
0	580010	393	177
0	581592	394	167
0	583044	395	137
0	584502	396	155
0	586075	397	148
0	587499	398	143
0	589356	399	178
0	590853	400	147
0	592477	401	155
0	593917	402	139
0	595356	403	142
0	596960	404	177
0	598704	405	163
0	600198	406	173
0	601294	407	101
0	602772	408	147
0	604091	409	116
0	605379	410	108
0	606885	411	153
0	608548	412	178
0	609999	413	116
0	611396	414	146
0	612733	415	136
0	614062	416	130
0	615235	417	126
0	616477	418	123
0	617713	419	117
0	619221	420	164
0	621029	421	173
0	622652	422	142
0	623886	423	111
0	624857	424	90
0	626318	425	144
0	627767	426	138
0	629027	427	125
0	630362	428	128
0	631635	429	114
0	633254	430	129
0	634463	431	90
0	636170	432	162
0	637908	433	159
0	639621	434	188
0	641531	435	187
0	643051	436	137
0	644927	437	207
0	646417	438	137
0	648081	439	181
0	649681	440	160
0	651030	441	128
0	652565	442	146
0	654071	443	167
0	655474	444	134
0	657034	445	161
0	658152	446	79
0	659809	447	170
0	661215	448	129
0	662541	449	143
0	664076	450	133
0	665503	451	144
0	666654	452	112
0	667929	453	128
0	669309	454	119
0	670820	455	130
0	672476	456	171
0	674147	457	156
0	675733	458	151
0	677047	459	135
0	678591	460	138
0	680213	461	161
0	681495	462	127
0	683272	463	164
0	684627	464	130
0	686114	465	140
0	687734	466	147
0	689276	467	143
0	690625	468	116
0	691974	469	140
0	693551	470	163
0	694860	471	104
0	696916	472	205
0	698327	473	146
0	699485	474	117
0	700989	475	145
0	702653	476	165
0	704565	477	171
0	705900	478	142
0	707314	479	141
0	708704	480	126
0	710253	481	146
0	711944	482	174
0	713449	483	134
0	715116	484	160
0	716548	485	137
0	718075	486	150
0	719623	487	137
0	720959	488	111
0	722380	489	126
0	723953	490	153
0	725517	491	155
0	726742	492	108
0	728483	493	164
0	730065	494	149
0	731733	495	187
0	733022	496	112
0	734544	497	143
0	736057	498	128
0	737453	499	133
0	739297	500	174
0	740642	501	120
0	741858	502	123
0	743384	503	149
0	744717	504	138
0	745849	505	107
0	747548	506	172
0	748863	507	122
0	750408	508	136
0	751823	509	154
0	753580	510	175
0	755082	511	163
0	756346	512	117
0	757742	513	131
0	759120	514	129
0	760536	515	139
0	762220	516	147
0	763576	517	121
0	764855	518	118
0	766147	519	113
0	767542	520	133
0	768653	521	110
0	769904	522	122
0	771222	523	139
0	772478	524	113
0	773705	525	122
0	775143	526	151
0	776788	527	168
0	778130	528	135
0	779344	529	111
0	781018	530	160
0	782338	531	119
0	783541	532	100
0	784853	533	125
0	786137	534	115
0	787518	535	116
0	788987	536	146
0	790650	537	146
0	792451	538	178
0	793525	539	95
0	795125	540	150
0	796520	541	124
0	798376	542	179
0	799927	543	156
0	801016	544	100
0	802639	545	156
0	803995	546	109
0	805194	547	98
0	806636	548	117
0	807934	549	115
0	809686	550	168
0	811183	551	156
0	812405	552	121
0	813798	553	136
0	814896	554	95
0	816446	555	153
0	818152	556	185
0	819721	557	154
0	821437	558	149
0	823321	559	185
0	824938	560	151
0	826243	561	114
0	827690	562	132
0	828855	563	100
0	829985	564	99
0	831390	565	146
0	833034	566	167
0	834246	567	113
0	835787	568	152
0	837330	569	172
0	838728	570	120
0	839795	571	110
0	841100	572	128
0	842711	573	162
0	843780	574	106
0	845324	575	141
0	846816	576	131
0	848120	577	135
0	849507	578	136
0	850921	579	131
0	852490	580	141
0	853910	581	141
0	855399	582	162
0	856779	583	113
0	857932	584	108
0	859385	585	148
0	860768	586	126
0	862316	587	143
0	863656	588	121
0	865251	589	148
0	866661	590	122
0	868195	591	151
0	869534	592	130
0	871129	593	154
0	872780	594	166
0	874397	595	160
0	876110	596	164
0	877617	597	150
0	878913	598	129
0	880314	599	124
0	881545	600	113
0	883134	601	148
0	884666	602	137
0	886118	603	131
0	887679	604	154
0	889460	605	198
0	890760	606	131
0	892486	607	189
0	893828	608	117
0	895271	609	126
0	896790	610	149
0	897874	611	103
0	899187	612	118
0	900490	613	118
0	902177	614	152
0	903499	615	109
0	904836	616	140
0	906109	617	122
0	907383	618	113
0	908897	619	147
0	910439	620	162
0	911947	621	169
0	913386	622	152
0	914745	623	120
0	916316	624	146
0	917624	625	125
0	919267	626	152
0	920292	627	92
0	921741	628	126
0	923391	629	153
0	924783	630	148
0	925977	631	109
0	927380	632	152
0	928830	633	129
0	930347	634	136
0	931942	635	142
0	933468	636	155
0	935170	637	165
0	936824	638	173
0	938096	639	119
0	939226	640	98
0	940232	641	91
0	942042	642	181
0	943753	643	150
0	945250	644	140
0	946533	645	120
0	947825	646	133
0	949455	647	149
0	950668	648	118
0	952278	649	139
0	953860	650	154
0	954977	651	102
0	956318	652	116
0	957576	653	111
0	958747	654	110
0	960216	655	152
0	961615	656	146
0	962905	657	125
0	964477	658	159
0	965953	659	135
0	967389	660	130
0	968977	661	139
0	970460	662	140
0	971872	663	137
0	973388	664	145
0	974835	665	154
0	976731	666	183
0	977954	667	104
0	979079	668	102
0	980451	669	123
0	982106	670	157
0	983578	671	141
0	985392	672	203
0	987139	673	172
0	988661	674	155
0	990064	675	144
0	991543	676	134
0	992861	677	123
0	994398	678	152
0	995806	679	121
0	996961	680	95
0	998697	681	167
0	1000113	682	129
0	1001837	683	169
0	1003651	684	175
0	1005067	685	131
0	1006422	686	128
0	1007812	687	119
0	1009552	688	157
0	1010731	689	94
0	1012231	690	144
0	1013625	691	127
0	1015061	692	127
0	1016376	693	124
0	1017953	694	132
0	1019628	695	148
0	1021119	696	146
0	1022127	697	77
0	1023610	698	144
0	1025027	699	126
0	1026458	700	115
0	1028096	701	165
0	1029212	702	97
0	1030307	703	118
0	1031980	704	170
0	1033625	705	170
0	1035189	706	157
0	1036747	707	167
0	1038472	708	158
0	1039455	709	98
0	1041093	710	154
0	1042381	711	129
0	1043919	712	135
0	1045595	713	181
0	1047089	714	147
0	1048760	715	186
0	1050260	716	157
0	1051774	717	147
0	1053239	718	136
0	1054621	719	133
0	1056107	720	140
0	1057722	721	144
0	1059165	722	112
0	1060909	723	169
0	1062246	724	120
0	1063590	725	135
0	1065349	726	172
0	1066866	727	138
0	1068351	728	148
0	1069899	729	143
0	1071384	730	153
0	1072932	731	147
0	1074139	732	118
0	1075456	733	116
0	1076745	734	118
0	1078206	735	128
0	1079714	736	151
0	1080987	737	128
0	1082214	738	116
0	1083569	739	132
0	1085118	740	151
0	1086583	741	134
0	1088063	742	133
0	1089516	743	128
0	1091136	744	171
0	1092748	745	159
0	1094489	746	174
0	1096001	747	153
0	1097411	748	133
0	1098767	749	119
0	1100499	750	184
0	1101982	751	138
0	1103536	752	159
0	1105175	753	150
0	1106403	754	101
0	1107986	755	158
0	1109633	756	174
0	1110981	757	145
0	1112535	758	151
0	1113897	759	125
0	1115328	760	155
0	1116614	761	131
0	1117915	762	124
0	1119497	763	153
0	1120864	764	120
0	1122180	765	113
0	1123652	766	133
0	1125071	767	146
0	1126549	768	163
0	1127638	769	102
0	1129019	770	135
0	1130346	771	124
0	1131799	772	128
0	1133237	773	143
0	1134788	774	140
0	1136258	775	153
0	1137964	776	171
0	1139057	777	84
0	1140435	778	135
0	1141945	779	143
0	1143484	780	155
0	1144997	781	148
0	1146105	782	99
0	1147631	783	143
0	1149038	784	110
0	1150123	785	102
0	1151528	786	136
0	1153036	787	155
0	1154529	788	152
0	1155761	789	113
0	1157285	790	172
0	1158894	791	160
0	1160446	792	125
0	1162196	793	185
0	1163588	794	147
0	1165073	795	152
0	1166751	796	139
0	1168194	797	124
0	1169496	798	147
0	1170800	799	113
0	1172291	800	155
0	1173815	801	145
0	1175557	802	179
0	1177197	803	151
0	1178796	804	156
0	1179864	805	105
0	1181552	806	175
0	1183032	807	155
0	1184486	808	123
0	1186058	809	145
0	1187745	810	163
0	1189302	811	162
0	1190842	812	157
0	1192182	813	113
0	1193479	814	122
0	1194995	815	131
0	1196594	816	146
0	1198351	817	182
0	1199882	818	168
0	1201517	819	138
0	1203221	820	148
0	1204735	821	123
0	1206314	822	166
0	1207619	823	142
0	1209035	824	163
0	1210748	825	154
0	1212090	826	125
0	1213417	827	126
0	1214714	828	104
0	1216533	829	186
0	1218219	830	172
0	1220123	831	171
0	1221872	832	164
0	1223577	833	164
0	1225225	834	153
0	1226865	835	157
0	1228274	836	144
0	1229991	837	158
0	1231119	838	111
0	1232599	839	145
0	1234018	840	157
0	1235346	841	141
0	1236550	842	127
0	1237914	843	127
0	1239399	844	158
0	1240711	845	115
0	1241795	846	95
0	1243332	847	154
0	1244621	848	124
0	1246042	849	136
0	1247347	850	129
0	1248811	851	155
0	1250190	852	122
0	1251726	853	137
0	1253395	854	166
0	1255237	855	193
0	1256942	856	156
0	1258211	857	114
0	1259744	858	134
0	1261102	859	117
0	1262877	860	179
0	1264327	861	131
0	1266120	862	164
0	1267913	863	184
0	1269481	864	163
0	1270897	865	115
0	1272313	866	137
0	1273648	867	122
0	1275026	868	129
0	1276414	869	117
0	1277743	870	139
0	1279333	871	157
0	1280667	872	131
0	1281990	873	138
0	1283478	874	131
0	1284900	875	123
0	1286245	876	142
0	1287768	877	152
0	1289425	878	178
0	1291159	879	177
0	1292552	880	133
0	1294257	881	170
0	1295424	882	108
0	1297076	883	181
0	1298424	884	121
0	1299625	885	120
0	1300945	886	125
0	1302128	887	116
0	1303271	888	112
0	1304198	889	96
0	1305772	890	150
0	1307514	891	185
0	1309099	892	152
0	1310658	893	126
0	1312125	894	142
0	1313420	895	120
0	1314990	896	169
0	1316265	897	116
0	1317773	898	123
0	1319021	899	121
0	1320715	900	176
0	1322118	901	144
0	1323744	902	159
0	1325044	903	113
0	1326200	904	101
0	1327553	905	136
0	1329001	906	141
0	1330071	907	91
0	1331577	908	123
0	1332976	909	150
0	1334327	910	121
0	1335831	911	149
0	1337201	912	151
0	1338636	913	132
0	1340228	914	163
0	1341511	915	110
0	1342836	916	128
0	1344405	917	158
0	1346306	918	166
0	1347697	919	122
0	1349264	920	145
0	1350677	921	132
0	1352197	922	141
0	1353732	923	134
0	1355075	924	144
0	1356310	925	140
0	1357854	926	145
0	1359263	927	124
0	1360515	928	117
0	1362214	929	152
0	1363591	930	121
0	1364740	931	92
0	1366389	932	164
0	1367994	933	156
0	1369403	934	132
0	1371018	935	178
0	1372298	936	119
0	1373954	937	167
0	1375076	938	87
0	1376632	939	157
0	1377925	940	117
0	1379281	941	149
0	1380629	942	127
0	1381873	943	125
0	1383521	944	149
0	1385127	945	147
0	1386391	946	103
0	1387785	947	141
0	1389197	948	129
0	1390742	949	156
0	1392009	950	133
0	1393308	951	128
0	1394824	952	137
0	1396113	953	126
0	1397639	954	155
0	1398882	955	122
0	1400347	956	128
0	1401952	957	160
0	1403126	958	105
0	1404556	959	143
0	1405915	960	113
0	1407248	961	122
0	1408778	962	127
0	1410150	963	133
0	1411725	964	166
0	1413265	965	145
0	1414912	966	146
0	1416540	967	149
0	1417603	968	94
0	1418829	969	131
0	1420369	970	168
0	1422068	971	162
0	1423424	972	123
0	1424876	973	129
0	1426295	974	150
0	1427964	975	186
0	1429516	976	155
0	1430804	977	117
0	1432230	978	133
0	1433514	979	121
0	1435010	980	120
0	1436219	981	116
0	1437537	982	133
0	1439022	983	146
0	1440653	984	168
0	1442009	985	127
0	1443450	986	148
0	1444736	987	119
0	1446207	988	134
0	1447763	989	149
0	1449607	990	184
0	1450853	991	123
0	1452297	992	145
0	1453961	993	177
0	1455314	994	136
0	1456737	995	146
0	1458310	996	148
0	1459663	997	134
0	1461047	998	139
0	1462381	999	129
0	1463820	1000	159
0	1465388	1001	159
0	1466640	1002	107
0	1468251	1003	168
0	1469720	1004	146
0	1471432	1005	177
0	1472822	1006	119
0	1474264	1007	141
0	1476008	1008	163
0	1477670	1009	147
0	1479680	1010	190
0	1481082	1011	159
0	1482517	1012	130
0	1483699	1013	115
0	1485493	1014	185
0	1487126	1015	164
0	1488643	1016	150
0	1490190	1017	146
0	1491521	1018	126
0	1493197	1019	187
0	1494967	1020	184
0	1496235	1021	121
0	1498004	1022	206
0	1499525	1023	140
0	1501114	1024	154
0	1502570	1025	121
0	1504205	1026	138
0	1505788	1027	166
0	1507271	1028	130
0	1508511	1029	117
0	1510015	1030	144
0	1511248	1031	120
0	1512938	1032	171
0	1514086	1033	117
0	1515719	1034	168
0	1517293	1035	143
0	1518898	1036	148
0	1520164	1037	133
0	1521341	1038	104
0	1523010	1039	160
0	1524526	1040	146
0	1525898	1041	131
0	1527101	1042	126
0	1528429	1043	137
0	1529959	1044	137
0	1531362	1045	128
0	1532604	1046	111
0	1534206	1047	167
0	1535980	1048	165
0	1537486	1049	155
0	1538875	1050	131
0	1540267	1051	141
0	1542082	1052	178
0	1543493	1053	138
0	1544835	1054	123
0	1545893	1055	101
0	1547534	1056	172
0	1549060	1057	135
0	1550404	1058	119
0	1552007	1059	172
0	1553487	1060	150
0	1555154	1061	154
0	1556593	1062	144
0	1557919	1063	137
0	1559323	1064	123
0	1560784	1065	130
0	1562057	1066	116
0	1563298	1067	104
0	1564535	1068	120
0	1565976	1069	126
0	1567263	1070	123
0	1568603	1071	125
0	1569940	1072	136
0	1571617	1073	176
0	1573136	1074	146
0	1574620	1075	141
0	1575966	1076	123
0	1577483	1077	164
0	1579123	1078	149
0	1580520	1079	134
0	1582025	1080	141
0	1583436	1081	134
0	1584953	1082	164
0	1586200	1083	120
0	1587768	1084	155
0	1589352	1085	159
0	1591062	1086	167
0	1592427	1087	134
0	1593573	1088	115
0	1595102	1089	158
0	1596788	1090	160
0	1597826	1091	83
0	1599404	1092	151
0	1600778	1093	117
0	1602420	1094	151
0	1603963	1095	164
0	1605436	1096	140
0	1606776	1097	119
0	1608248	1098	139
0	1609830	1099	151
0	1611409	1100	161
0	1612761	1101	125
0	1614056	1102	120
0	1615463	1103	142
0	1617095	1104	179
0	1618698	1105	158
0	1620409	1106	162
0	1621974	1107	160
0	1623421	1108	138
0	1624880	1109	146
0	1626397	1110	151
0	1628086	1111	174
0	1629778	1112	151
0	1631264	1113	131
0	1632526	1114	113
0	1634562	1115	219
0	1636264	1116	157
0	1637358	1117	103
0	1639128	1118	201
0	1640862	1119	175
0	1642233	1120	129
0	1643417	1121	97
0	1644649	1122	113
0	1646146	1123	138
0	1647621	1124	148
0	1649147	1125	141
0	1650860	1126	160
0	1652489	1127	158
0	1654019	1128	139
0	1655217	1129	117
0	1656769	1130	146
0	1658132	1131	118
0	1659672	1132	155
0	1661297	1133	170
0	1662487	1134	111
0	1664102	1135	174
0	1665354	1136	125
0	1666893	1137	134
0	1668467	1138	167
0	1670040	1139	152
0	1671688	1140	158
0	1673048	1141	119
0	1674578	1142	145
0	1676208	1143	153
0	1677625	1144	144
0	1679343	1145	147
0	1680761	1146	131
0	1682245	1147	129
0	1683621	1148	133
0	1685357	1149	185
0	1686796	1150	143
0	1688043	1151	116
0	1689204	1152	100
0	1690603	1153	118
0	1692102	1154	142
0	1693900	1155	173
0	1695175	1156	124
0	1696598	1157	146
0	1698468	1158	195
0	1700355	1159	198
0	1701788	1160	127
0	1703193	1161	136
0	1704736	1162	130
0	1706397	1163	152
0	1707812	1164	138
0	1709423	1165	146
0	1710802	1166	124
0	1712377	1167	156
0	1713736	1168	126
0	1715122	1169	131
0	1716526	1170	146
0	1717897	1171	124
0	1719266	1172	150
0	1720689	1173	132
0	1722382	1174	160
0	1724073	1175	138
0	1725439	1176	131
0	1727056	1177	156
0	1728753	1178	182
0	1730136	1179	140
0	1731859	1180	171
0	1733432	1181	146
0	1734595	1182	94
0	1735982	1183	142
0	1737720	1184	179
0	1739352	1185	185
0	1741005	1186	160
0	1742518	1187	158
0	1744065	1188	144
0	1745506	1189	148
0	1747366	1190	172
0	1748923	1191	156
0	1750299	1192	109
0	1751689	1193	133
0	1753240	1194	168
0	1754428	1195	109
0	1755584	1196	113
0	1756932	1197	139
0	1758214	1198	111
0	1759590	1199	123
0	1760986	1200	120
0	1762351	1201	130
0	1763966	1202	158
0	1765233	1203	120
0	1766667	1204	151
0	1767950	1205	114
0	1769444	1206	143
0	1770710	1207	115
0	1771970	1208	117
0	1773628	1209	169
0	1775175	1210	155
0	1776617	1211	139
0	1778130	1212	140
0	1779462	1213	127
0	1781147	1214	156
0	1782904	1215	172
0	1784242	1216	115
0	1785809	1217	156
0	1787350	1218	136
0	1788784	1219	159
0	1790014	1220	120
0	1791649	1221	152
0	1793298	1222	148
0	1794921	1223	174
0	1796313	1224	153
0	1797951	1225	147
0	1799689	1226	179
0	1801432	1227	174
0	1802787	1228	138
0	1804160	1229	130
0	1805263	1230	103
0	1806505	1231	123
0	1808058	1232	140
0	1809322	1233	133
0	1810571	1234	114
0	1811988	1235	142
0	1813393	1236	140
0	1814965	1237	155
0	1816244	1238	124
0	1817413	1239	96
0	1818827	1240	148
0	1820105	1241	127
0	1821624	1242	144
0	1823389	1243	188
0	1824957	1244	157
0	1826230	1245	116
0	1827483	1246	128
0	1828904	1247	140
0	1830443	1248	148
0	1831865	1249	121
0	1833836	1250	211
0	1835161	1251	124
0	1836804	1252	160
0	1838475	1253	160
0	1840100	1254	162
0	1841529	1255	146
0	1842946	1256	124
0	1844140	1257	111
0	1845420	1258	123
0	1847133	1259	180
0	1848889	1260	200
0	1850312	1261	122
0	1851976	1262	173
0	1853312	1263	137
0	1854617	1264	128
0	1855907	1265	129
0	1857376	1266	138
0	1858829	1267	120
0	1860551	1268	165
0	1861998	1269	148
0	1863319	1270	139
0	1865080	1271	174
0	1866459	1272	128
0	1868170	1273	186
0	1869831	1274	148
0	1871586	1275	186
0	1873273	1276	170
0	1874505	1277	119
0	1875942	1278	134
0	1877379	1279	136
0	1878974	1280	141
0	1880411	1281	138
0	1881640	1282	126
0	1883171	1283	146
0	1884461	1284	123
0	1885719	1285	111
0	1887277	1286	171
0	1888880	1287	154
0	1890187	1288	134
0	1891721	1289	161
0	1893276	1290	147
0	1894759	1291	162
0	1896460	1292	156
0	1898027	1293	150
0	1899409	1294	139
0	1900732	1295	138
0	1902355	1296	142
0	1903947	1297	167
0	1905453	1298	133
0	1906960	1299	138
0	1908675	1300	157
0	1910091	1301	121
0	1911588	1302	156
0	1912998	1303	129
0	1914113	1304	110
0	1915532	1305	144
0	1916825	1306	124
0	1918051	1307	127
0	1919773	1308	181
0	1921398	1309	158
0	1922828	1310	142
0	1924104	1311	141
0	1925048	1312	77
0	1926328	1313	113
0	1928105	1314	188
0	1929862	1315	176
0	1931507	1316	160
0	1933043	1317	159
0	1934271	1318	123
0	1935771	1319	149
0	1937064	1320	111
0	1938382	1321	159
0	1939611	1322	96
0	1941365	1323	179
0	1943130	1324	162
0	1944601	1325	154
0	1946203	1326	157
0	1947743	1327	141
0	1949108	1328	124
0	1950575	1329	142
0	1952150	1330	165
0	1953568	1331	119
0	1954956	1332	145
0	1956467	1333	164
0	1958209	1334	173
0	1959450	1335	100
0	1961135	1336	172
0	1962560	1337	132
0	1964080	1338	129
0	1965849	1339	178
0	1967483	1340	148
0	1968854	1341	130
0	1970437	1342	154
0	1971831	1343	115
0	1973109	1344	139
0	1974592	1345	138
0	1975676	1346	97
0	1977210	1347	147
0	1978645	1348	120
0	1980371	1349	161
0	1981946	1350	157
0	1983280	1351	131
0	1984738	1352	155
0	1986158	1353	137
0	1987324	1354	111
0	1988774	1355	123
0	1990174	1356	133
0	1991725	1357	138
0	1993295	1358	157
0	1995003	1359	159
0	1996443	1360	152
0	1998139	1361	173
0	1999592	1362	144
0	2001133	1363	156
0	2002534	1364	128
0	2003755	1365	102
0	2005062	1366	114
0	2006659	1367	142
0	2008138	1368	136
0	2009640	1369	131
0	2011323	1370	171
0	2012972	1371	152
0	2014442	1372	151
0	2015752	1373	107
0	2017223	1374	126
0	2018650	1375	126
0	2019783	1376	108
0	2021544	1377	188
0	2022829	1378	116
0	2024451	1379	167
0	2025853	1380	110
0	2027132	1381	104
0	2028553	1382	138
0	2030048	1383	136
0	2031470	1384	141
0	2032508	1385	91
0	2034077	1386	160
0	2035725	1387	145
0	2037023	1388	119
0	2038423	1389	129
0	2039967	1390	148
0	2041373	1391	131
0	2042629	1392	113
0	2044046	1393	114
0	2045298	1394	119
0	2046824	1395	139
0	2048066	1396	115
0	2049483	1397	138
0	2051328	1398	194
0	2052673	1399	112
0	2053675	1400	86
0	2055160	1401	124
0	2056842	1402	151
0	2058395	1403	146
0	2059838	1404	146
0	2061272	1405	155
0	2062849	1406	154
0	2064230	1407	124
0	2065467	1408	112
0	2066962	1409	148
0	2068245	1410	119
0	2069770	1411	134
0	2071309	1412	144
0	2073073	1413	167
0	2074503	1414	149
0	2076201	1415	163
0	2077664	1416	150
0	2079095	1417	120
0	2080322	1418	116
0	2081894	1419	161
0	2083208	1420	140
0	2084667	1421	132
0	2086082	1422	122
0	2087403	1423	130
0	2089264	1424	188
0	2090439	1425	104
0	2091567	1426	121
0	2092994	1427	136
0	2094756	1428	169
0	2096145	1429	152
0	2097841	1430	152
0	2099060	1431	120
0	2100899	1432	184
0	2102212	1433	126
0	2103433	1434	114
0	2104741	1435	129
0	2106324	1436	148
0	2107998	1437	171
0	2109108	1438	97
0	2110794	1439	163
0	2112324	1440	136
0	2113766	1441	137
0	2114823	1442	102
0	2116132	1443	126
0	2117524	1444	135
0	2118969	1445	144
0	2120363	1446	141
0	2121667	1447	123
0	2123260	1448	150
0	2124513	1449	124
0	2125822	1450	115
0	2127446	1451	171
0	2129010	1452	141
0	2130131	1453	108
0	2131747	1454	147
0	2133556	1455	160
0	2134924	1456	141
0	2136341	1457	148
0	2137574	1458	138
0	2139064	1459	139
0	2140557	1460	151
0	2141920	1461	140
0	2143322	1462	141
0	2144883	1463	152
0	2146329	1464	141
0	2147660	1465	128
0	2149419	1466	182
0	2151168	1467	178
0	2152485	1468	112
0	2154356	1469	194
0	2156246	1470	190
0	2157288	1471	99
0	2158733	1472	146
0	2160090	1473	120
0	2161879	1474	172
0	2163113	1475	113
0	2164510	1476	116
0	2165953	1477	138
0	2167450	1478	156
0	2168907	1479	148
0	2170327	1480	140
0	2171767	1481	161
0	2173303	1482	151
0	2175169	1483	157
0	2176714	1484	164
0	2178093	1485	142
0	2179752	1486	170
0	2181270	1487	147
0	2182755	1488	140
0	2184149	1489	145
0	2185544	1490	137
0	2187017	1491	146
0	2188575	1492	157
0	2189818	1493	124
0	2191267	1494	124
0	2192869	1495	159
0	2194465	1496	137
0	2195947	1497	147
0	2197498	1498	138
0	2199040	1499	167
0	2200267	1500	111
0	2201551	1501	111
0	2203124	1502	156
0	2204568	1503	141
0	2206114	1504	147
0	2207598	1505	127
0	2208957	1506	120
0	2210578	1507	146
0	2212025	1508	130
0	2213200	1509	112
0	2214625	1510	143
0	2215914	1511	122
0	2217433	1512	136
0	2218785	1513	137
0	2220039	1514	113
0	2221540	1515	150
0	2222787	1516	104
0	2224065	1517	109
0	2225530	1518	152
0	2226891	1519	112
0	2228361	1520	150
0	2229677	1521	117
0	2231243	1522	147
0	2232740	1523	132
0	2234353	1524	144
0	2235748	1525	132
0	2237098	1526	117
0	2238434	1527	131
0	2240000	1528	157
0	2241698	1529	165
0	2243232	1530	142
0	2244662	1531	141
0	2246098	1532	149
0	2247465	1533	138
0	2248911	1534	135
0	2250311	1535	109
0	2251753	1536	143
0	2253423	1537	163
0	2254930	1538	146
0	2256354	1539	129
0	2257831	1540	147
0	2259002	1541	114
0	2260488	1542	137
0	2262057	1543	150
0	2263332	1544	112
0	2264325	1545	86
0	2265781	1546	157
0	2267368	1547	162
0	2269139	1548	170
0	2270320	1549	96
0	2271536	1550	112
0	2272964	1551	151
0	2274213	1552	112
0	2275736	1553	146
0	2277094	1554	135
0	2278654	1555	153
0	2280296	1556	157
0	2281482	1557	109
0	2282633	1558	88
0	2284051	1559	143
0	2285582	1560	145
0	2287082	1561	133
0	2288487	1562	120
0	2290132	1563	158
0	2291628	1564	131
0	2292950	1565	129
0	2294873	1566	192
0	2296420	1567	142
0	2297665	1568	104
0	2298991	1569	117
0	2300449	1570	124
0	2302124	1571	150
0	2303282	1572	111
0	2304533	1573	112
0	2306022	1574	146
0	2307821	1575	198
0	2309314	1576	152
0	2310960	1577	165
0	2312555	1578	170
0	2314260	1579	172
0	2315818	1580	156
0	2317200	1581	145
0	2318890	1582	155
0	2320501	1583	156
0	2322034	1584	144
0	2323271	1585	120
0	2324875	1586	133
0	2326095	1587	117
0	2327276	1588	112
0	2328844	1589	163
0	2330000	1590	92
0	2331381	1591	116
0	2332772	1592	140
0	2333873	1593	120
0	2335144	1594	134
0	2336771	1595	148
0	2338320	1596	150
0	2340092	1597	183
0	2341498	1598	125
0	2342814	1599	133
0	2344298	1600	136
0	2345943	1601	158
0	2347045	1602	105
0	2348555	1603	139
0	2349890	1604	140
0	2351246	1605	123
0	2352838	1606	175
0	2354253	1607	140
0	2355823	1608	151
0	2357100	1609	100
0	2358502	1610	106
0	2359620	1611	99
0	2360915	1612	130
0	2362180	1613	120
0	2363731	1614	150