version 3
run SimulationTime-375-20240108-13:23:48-13492
attr configname SimulationTime
attr datetime 20240108-13:23:48
attr datetimef 20240108-132348
attr experiment SimulationTime
attr inifile omnetpp.ini
attr iterationvars ""
attr iterationvarsd ""
attr iterationvarsf ""
attr measurement ""
attr network System
attr processid 13492
attr repetition 375
attr replication #375
attr resultdir results
attr runnumber 375
attr seedset 375
config **.cpu.rate 1000
config **.hd.rateProcessing 250
config **.webServer.web_server_rate 100
config **.p1 0.35
config **.p2 0.40
config network System
config num-rngs 4
config **.cpu.rng-0 0
config **.cpu.rng-1 1
config **.hd.rng-0 2
config **.webServer.rng-0 3
config repeat 500
config seed-set 375
config sim-time-limit 10000s
config **.client.numClients 40

vector 0 System.server.cpu requestCounterStat:vector ETV
attr recordingmode vector
attr source requestCounter
vector 1 System.server.hd utilizationHdStat:vector ETV
attr recordingmode vector
attr source utilizationHd
vector 2 System.server.cpu utilizationCpuStat:vector ETV
attr recordingmode vector
attr source utilizationCpu
vector 3 System.webServer utilizationWsStat:vector ETV
attr recordingmode vector
attr source utilizationWs
0	1960	1	195
0	3772	2	171
0	5123	3	142
0	6403	4	121
0	7880	5	158
0	9233	6	118
0	10929	7	155
0	12327	8	129
0	13986	9	158
0	15728	10	158
0	17016	11	109
0	18321	12	124
0	19784	13	164
0	20898	14	113
0	22241	15	130
0	23892	16	134
0	25208	17	119
0	26720	18	149
0	28062	19	125
0	29680	20	150
0	31267	21	162
0	32460	22	108
0	33790	23	119
0	35408	24	159
0	36742	25	127
0	37830	26	93
0	39213	27	138
0	40956	28	166
0	42379	29	130
0	43670	30	117
0	45208	31	163
0	47161	32	198
0	48641	33	127
0	50234	34	154
0	51743	35	146
0	53312	36	160
0	54795	37	134
0	56173	38	139
0	57525	39	145
0	58844	40	141
0	60542	41	153
0	61976	42	135
0	63325	43	140
0	64910	44	134
0	66249	45	132
0	67648	46	148
0	69447	47	186
0	70978	48	136
0	72355	49	136
0	73787	50	122
0	75024	51	116
0	76541	52	146
0	78115	53	153
0	79548	54	142
0	81087	55	152
0	82569	56	139
0	84016	57	148
0	85484	58	131
0	87077	59	158
0	88607	60	144
0	89835	61	115
0	91245	62	143
0	92607	63	127
0	93948	64	138
0	95629	65	184
0	97214	66	142
0	98623	67	126
0	99880	68	120
0	101256	69	141
0	102988	70	162
0	104100	71	113
0	105645	72	148
0	107216	73	148
0	108596	74	121
0	109879	75	118
0	111449	76	161
0	112919	77	141
0	114348	78	124
0	115956	79	157
0	117601	80	157
0	118801	81	87
0	120678	82	182
0	121967	83	122
0	123323	84	133
0	124607	85	129
0	125916	86	126
0	127559	87	160
0	129046	88	150
0	130749	89	170
0	132273	90	154
0	133569	91	111
0	134965	92	149
0	136568	93	148
0	137779	94	92
0	139046	95	132
0	140396	96	149
0	141696	97	125
0	143052	98	125
0	144599	99	144
0	145864	100	119
0	147367	101	134
0	148852	102	130
0	150015	103	120
0	151353	104	125
0	152750	105	130
0	154387	106	174
0	155395	107	99
0	156585	108	125
0	158027	109	127
0	159520	110	147
0	161034	111	145
0	162992	112	197
0	165069	113	206
0	166771	114	153
0	168045	115	127
0	169576	116	150
0	170669	117	102
0	172141	118	135
0	173722	119	160
0	175181	120	121
0	176592	121	138
0	178301	122	158
0	179915	123	165
0	181404	124	158
0	182905	125	142
0	184342	126	148
0	185808	127	141
0	187227	128	140
0	188853	129	167
0	190297	130	130
0	192129	131	179
0	193614	132	136
0	194977	133	122
0	196741	134	187
0	198200	135	148
0	199487	136	110
0	200750	137	110
0	202027	138	100
0	203245	139	115
0	204412	140	121
0	205695	141	130
0	207464	142	164
0	208551	143	98
0	210090	144	132
0	211673	145	152
0	213057	146	127
0	214248	147	108
0	215632	148	133
0	216922	149	135
0	218042	150	100
0	219307	151	120
0	220786	152	150
0	222164	153	129
0	223684	154	131
0	225324	155	161
0	226689	156	132
0	228291	157	143
0	229764	158	140
0	230908	159	103
0	232273	160	111
0	233815	161	147
0	235285	162	153
0	236815	163	151
0	237932	164	112
0	239385	165	144
0	240578	166	112
0	242185	167	160
0	243590	168	126
0	244653	169	80
0	246241	170	154
0	247773	171	157
0	249118	172	132
0	250225	173	114
0	251546	174	122
0	253298	175	181
0	255032	176	181
0	256396	177	133
0	257730	178	119
0	259088	179	141
0	260732	180	152
0	262318	181	167
0	264011	182	154
0	265253	183	107
0	266472	184	110
0	267997	185	152
0	269712	186	164
0	271133	187	130
0	272369	188	121
0	273749	189	113
0	275102	190	131
0	276735	191	160
0	278038	192	130
0	279645	193	144
0	281101	194	139
0	282471	195	135
0	283839	196	131
0	285154	197	132
0	286687	198	154
0	287953	199	121
0	289470	200	161
0	291056	201	145
0	292636	202	159
0	294058	203	141
0	295351	204	112
0	296944	205	172
0	298441	206	168
0	299945	207	149
0	301494	208	160
0	302937	209	118
0	304594	210	155
0	306190	211	153
0	307382	212	105
0	308940	213	151
0	310349	214	140
0	311935	215	147
0	313172	216	128
0	314731	217	146
0	316205	218	147
0	317759	219	151
0	319287	220	140
0	320605	221	119
0	322133	222	141
0	323351	223	115
0	325011	224	159
0	326675	225	167
0	328153	226	135
0	329575	227	151
0	331036	228	134
0	332645	229	148
0	334036	230	111
0	335076	231	101
0	336465	232	140
0	337764	233	118
0	339100	234	133
0	340572	235	151
0	342155	236	156
0	343849	237	163
0	345272	238	154
0	346943	239	148
0	348544	240	151
0	349902	241	137
0	351379	242	148
0	352985	243	167
0	354465	244	119
0	355899	245	133
0	357855	246	175
0	359592	247	170
0	361265	248	154
0	362722	249	130
0	364135	250	131
0	365491	251	145
0	367005	252	127
0	368617	253	145
0	370319	254	171
0	372287	255	199
0	373624	256	134
0	374763	257	98
0	376187	258	117
0	377766	259	160
0	379047	260	121
0	380394	261	138
0	381896	262	147
0	383386	263	127
0	384615	264	104
0	386074	265	130
0	387555	266	136
0	389014	267	138
0	390498	268	121
0	392081	269	154
0	393954	270	161
0	395619	271	154
0	396818	272	108
0	398441	273	148
0	400150	274	188
0	401727	275	152
0	403188	276	138
0	404547	277	148
0	405834	278	136
0	407321	279	144
0	408350	280	93
0	409678	281	145
0	411130	282	143
0	412611	283	128
0	413864	284	124
0	415415	285	152
0	416855	286	141
0	418212	287	132
0	419896	288	155
0	421653	289	176
0	423487	290	198
0	424742	291	98
0	426408	292	191
0	427786	293	139
0	429154	294	131
0	430307	295	108
0	431683	296	131
0	433130	297	126
0	434762	298	159
0	436535	299	178
0	437853	300	134
0	439300	301	126
0	441076	302	173
0	442420	303	133
0	443911	304	144
0	445532	305	152
0	446951	306	144
0	448252	307	128
0	449546	308	115
0	451017	309	146
0	452273	310	116
0	453830	311	148
0	454939	312	110
0	456346	313	140
0	457762	314	145
0	459272	315	135
0	460514	316	111
0	461877	317	134
0	463509	318	155
0	464774	319	134
0	466313	320	141
0	468058	321	196
0	469458	322	133
0	470802	323	129
0	472122	324	109
0	473602	325	137
0	475060	326	161
0	476531	327	138
0	477974	328	132
0	479485	329	134
0	480909	330	136
0	482186	331	124
0	483425	332	134
0	485057	333	161
0	486849	334	169
0	488237	335	145
0	489556	336	126
0	490922	337	123
0	492465	338	154
0	493888	339	142
0	495365	340	127
0	496809	341	137
0	498394	342	164
0	499848	343	151
0	501561	344	156
0	503083	345	135
0	504463	346	121
0	505847	347	143
0	507167	348	123
0	508673	349	147
0	510255	350	148
0	511911	351	143
0	513458	352	148
0	515182	353	151
0	516816	354	131
0	518090	355	99
0	519318	356	137
0	520777	357	126
0	522209	358	145
0	523849	359	145
0	525219	360	154
0	527019	361	189
0	528451	362	125
0	529759	363	141
0	531215	364	153
0	532719	365	143
0	534289	366	137
0	535685	367	129
0	536979	368	131
0	538220	369	126
0	539602	370	140
0	541071	371	142
0	542483	372	141
0	543872	373	134
0	545231	374	132
0	546822	375	156
0	548269	376	134
0	549922	377	164
0	551068	378	101
0	552417	379	144
0	553902	380	149
0	555256	381	111
0	556687	382	144
0	558147	383	143
0	559321	384	107
0	560685	385	135
0	561931	386	117
0	563220	387	112
0	564683	388	140
0	565964	389	110
0	567221	390	111
0	568503	391	117
0	570008	392	142
0	571431	393	122
0	572835	394	133
0	574581	395	151
0	575997	396	147
0	577772	397	190
0	579208	398	141
0	580820	399	151
0	582125	400	135
0	583480	401	132
0	584793	402	130
0	586530	403	172
0	587759	404	104
0	589268	405	128
0	590759	406	142
0	592194	407	142
0	593520	408	115
0	595019	409	142
0	596753	410	164
0	597963	411	107
0	599309	412	117
0	600663	413	131
0	602356	414	150
0	603487	415	86
0	604964	416	156
0	606250	417	121
0	607436	418	95
0	608594	419	131
0	610051	420	141
0	611493	421	135
0	612745	422	119
0	614399	423	159
0	615803	424	129
0	617375	425	163
0	618802	426	148
0	620120	427	109
0	621567	428	148
0	623220	429	164
0	624512	430	116
0	625924	431	145
0	627393	432	136
0	629114	433	166
0	630509	434	138
0	631746	435	130
0	633093	436	126
0	634807	437	163
0	636240	438	148
0	637516	439	115
0	638890	440	132
0	640288	441	153
0	641560	442	115
0	642991	443	122
0	644228	444	116
0	645280	445	111
0	646615	446	116
0	647814	447	110
0	649267	448	148
0	650725	449	131
0	652291	450	142
0	654053	451	175
0	655569	452	149
0	657030	453	140
0	658259	454	96
0	659962	455	158
0	661706	456	173
0	663531	457	158
0	664688	458	110
0	665879	459	110
0	667260	460	135
0	668769	461	144
0	670195	462	135
0	671619	463	129
0	673117	464	143
0	674737	465	153
0	676096	466	118
0	677706	467	163
0	679249	468	154
0	680861	469	169
0	682278	470	123
0	683725	471	142
0	685093	472	121
0	686375	473	119
0	688007	474	149
0	689419	475	133
0	690834	476	138
0	692293	477	132
0	693846	478	156
0	695438	479	163
0	696900	480	134
0	698118	481	127
0	699327	482	118
0	700969	483	171
0	702740	484	180
0	704272	485	153
0	705807	486	134
0	707282	487	138
0	708718	488	143
0	710349	489	164
0	711895	490	142
0	713419	491	149
0	714942	492	158
0	716501	493	150
0	718126	494	160
0	719505	495	126
0	720881	496	131
0	722171	497	121
0	723783	498	149
0	725391	499	157
0	726632	500	99
0	728312	501	149
0	729749	502	142
0	731320	503	150
0	732867	504	144
0	734319	505	145
0	735714	506	134
0	737028	507	129
0	738559	508	132
0	740016	509	152
0	741797	510	177
0	743107	511	119
0	744245	512	93
0	746090	513	210
0	747297	514	100
0	749019	515	171
0	750367	516	125
0	751908	517	160
0	753244	518	141
0	754525	519	120
0	755716	520	113
0	757274	521	153
0	758704	522	145
0	759935	523	114
0	761408	524	116
0	762797	525	148
0	763965	526	105
0	765470	527	148
0	767085	528	162
0	768862	529	190
0	770282	530	148
0	771679	531	138
0	772839	532	113
0	774521	533	171
0	775935	534	139
0	777241	535	131
0	778894	536	164
0	780242	537	141
0	781661	538	122
0	782995	539	109
0	784347	540	126
0	785920	541	144
0	787517	542	162
0	789265	543	189
0	791058	544	168
0	792479	545	130
0	794153	546	151
0	795846	547	196
0	797515	548	164
0	799120	549	174
0	800690	550	140
0	801878	551	107
0	803024	552	109
0	804423	553	128
0	806035	554	167
0	807352	555	120
0	808971	556	166
0	810367	557	133
0	811824	558	132
0	813258	559	131
0	814945	560	173
0	816322	561	130
0	817555	562	106
0	818784	563	120
0	820498	564	177
0	821837	565	124
0	823462	566	168
0	824807	567	118
0	826272	568	142
0	827634	569	127
0	828938	570	120
0	830312	571	123
0	832074	572	171
0	833591	573	144
0	835252	574	160
0	836798	575	151
0	838050	576	127
0	839078	577	91
0	840751	578	164
0	842048	579	128
0	843403	580	139
0	844884	581	142
0	846064	582	101
0	847589	583	152
0	848981	584	133
0	850158	585	96
0	851654	586	145
0	853144	587	143
0	854305	588	116
0	855858	589	154
0	857325	590	145
0	858498	591	106
0	860181	592	146
0	861656	593	146
0	863037	594	120
0	864294	595	144
0	865692	596	123
0	867088	597	129
0	868360	598	119
0	869633	599	138
0	871211	600	154
0	873120	601	196
0	874561	602	146
0	875973	603	143
0	877309	604	133
0	878914	605	162
0	880428	606	149
0	881889	607	160
0	883201	608	133
0	884782	609	140
0	886386	610	146
0	887698	611	129
0	889512	612	163
0	890926	613	129
0	892294	614	121
0	893589	615	138
0	895195	616	169
0	896605	617	149
0	897828	618	102
0	899069	619	124
0	900600	620	153
0	901956	621	127
0	903134	622	105
0	904222	623	97
0	905640	624	127
0	906865	625	108
0	908425	626	145
0	910059	627	155
0	911691	628	145
0	913060	629	122
0	914767	630	155
0	916111	631	139
0	917616	632	142
0	919155	633	120
0	920826	634	162
0	922219	635	128
0	923659	636	135
0	925263	637	151
0	926858	638	160
0	928519	639	156
0	930018	640	133
0	931301	641	126
0	932481	642	89
0	933881	643	125
0	935225	644	133
0	937315	645	215
0	938546	646	126
0	939785	647	106
0	941013	648	117
0	942380	649	142
0	943826	650	132
0	945097	651	112
0	946465	652	119
0	947893	653	163
0	949313	654	137
0	950856	655	148
0	952137	656	116
0	953504	657	124
0	955002	658	139
0	956505	659	160
0	957894	660	149
0	959210	661	145
0	960731	662	132
0	962176	663	136
0	963584	664	141
0	965135	665	148
0	966710	666	152
0	968106	667	129
0	969513	668	130
0	970861	669	129
0	972035	670	116
0	973432	671	140
0	974937	672	138
0	976595	673	163
0	978017	674	131
0	979235	675	131
0	980650	676	112
0	981854	677	103
0	982794	678	89
0	984224	679	133
0	985736	680	142
0	987456	681	161
0	988926	682	119
0	990400	683	131
0	991748	684	133
0	993164	685	129
0	994505	686	122
0	995810	687	118
0	997468	688	139
0	998724	689	105
0	1000164	690	134
0	1001807	691	174
0	1003246	692	132
0	1004369	693	116
0	1005872	694	136
0	1007377	695	136
0	1008525	696	103
0	1010029	697	143
0	1011646	698	148
0	1013137	699	136
0	1014515	700	130
0	1016218	701	168
0	1017401	702	106
0	1019097	703	173
0	1020656	704	158
0	1022351	705	154
0	1023863	706	149
0	1025365	707	145
0	1027014	708	160
0	1028592	709	161
0	1029903	710	117
0	1031342	711	134
0	1032780	712	129
0	1034447	713	172
0	1035764	714	116
0	1037212	715	167
0	1038630	716	147
0	1040398	717	169
0	1041842	718	125
0	1043502	719	151
0	1045039	720	159
0	1046553	721	147
0	1048160	722	150
0	1049453	723	128
0	1051006	724	156
0	1052654	725	165
0	1054027	726	146
0	1055402	727	124
0	1057160	728	167
0	1058484	729	131
0	1059693	730	105
0	1060886	731	102
0	1062524	732	169
0	1064202	733	155
0	1065627	734	134
0	1067141	735	145
0	1068685	736	167
0	1070258	737	144
0	1071804	738	177
0	1073264	739	129
0	1074849	740	141
0	1076325	741	147
0	1077688	742	124
0	1079261	743	176
0	1080710	744	146
0	1082225	745	134
0	1083625	746	149
0	1085013	747	143
0	1086575	748	143
0	1088152	749	160
0	1089556	750	138
0	1090852	751	103
0	1092413	752	168
0	1094245	753	193
0	1095584	754	128
0	1097155	755	142
0	1098425	756	127
0	1099418	757	80
0	1100648	758	111
0	1101909	759	116
0	1103492	760	141
0	1104741	761	124
0	1106136	762	122
0	1107829	763	152
0	1109299	764	147
0	1110457	765	119
0	1112037	766	161
0	1113581	767	145
0	1115615	768	197
0	1117013	769	151
0	1118370	770	125
0	1119885	771	134
0	1121469	772	149
0	1123010	773	162
0	1124391	774	138
0	1125663	775	121
0	1127043	776	133
0	1128652	777	138
0	1130383	778	164
0	1131772	779	124
0	1133175	780	129
0	1134473	781	131
0	1135917	782	157
0	1137668	783	168
0	1139189	784	152
0	1140737	785	139
0	1141815	786	99
0	1143073	787	119
0	1144599	788	151
0	1146021	789	143
0	1147557	790	132
0	1148927	791	123
0	1150772	792	180
0	1152401	793	156
0	1153973	794	153
0	1155422	795	160
0	1156874	796	137
0	1158023	797	106
0	1159726	798	158
0	1161256	799	147
0	1162770	800	140
0	1164258	801	123
0	1165800	802	153
0	1167238	803	157
0	1168790	804	163
0	1170527	805	152
0	1172202	806	164
0	1173617	807	132
0	1175064	808	156
0	1176429	809	126
0	1177703	810	130
0	1179152	811	144
0	1180501	812	130
0	1182259	813	181
0	1184094	814	184
0	1185456	815	119
0	1187119	816	160
0	1188495	817	133
0	1189942	818	146
0	1191527	819	168
0	1193116	820	161
0	1194549	821	152
0	1196137	822	153
0	1197446	823	116
0	1199076	824	169
0	1200563	825	138
0	1202108	826	152
0	1203535	827	146
0	1204800	828	112
0	1206562	829	211
0	1208123	830	133
0	1209693	831	169
0	1211126	832	140
0	1212376	833	103
0	1213987	834	176
0	1215342	835	116
0	1216728	836	111
0	1218131	837	146
0	1219704	838	156
0	1220836	839	101
0	1222274	840	138
0	1223889	841	162
0	1225125	842	119
0	1226532	843	134
0	1228309	844	192
0	1229961	845	149
0	1231404	846	140
0	1232665	847	106
0	1234120	848	148
0	1235282	849	109
0	1236745	850	139
0	1237959	851	127
0	1239631	852	149
0	1240605	853	87
0	1242143	854	137
0	1243804	855	168
0	1245228	856	135
0	1246599	857	124
0	1248181	858	157
0	1249638	859	120
0	1251160	860	154
0	1252441	861	108
0	1253826	862	144
0	1255302	863	153
0	1256311	864	92
0	1257661	865	143
0	1258781	866	101
0	1260634	867	178
0	1262254	868	147
0	1263697	869	130
0	1265357	870	152
0	1266468	871	92
0	1267764	872	119
0	1269186	873	121
0	1270381	874	114
0	1271979	875	165
0	1273512	876	136
0	1274751	877	98
0	1276130	878	130
0	1277890	879	181
0	1279321	880	143
0	1280643	881	125
0	1282065	882	117
0	1283646	883	174
0	1285333	884	162
0	1287011	885	159
0	1288498	886	154
0	1289789	887	130
0	1291320	888	148
0	1292701	889	138
0	1293826	890	103
0	1295401	891	154
0	1296784	892	130
0	1298070	893	119
0	1299432	894	143
0	1300940	895	143
0	1302372	896	143
0	1303795	897	142
0	1304968	898	116
0	1306156	899	113
0	1307429	900	125
0	1308658	901	120
0	1309948	902	123
0	1311683	903	178
0	1312913	904	107
0	1314298	905	116
0	1315667	906	122
0	1317214	907	148
0	1318614	908	129
0	1320211	909	150
0	1321581	910	122
0	1322821	911	93
0	1323795	912	81
0	1325164	913	122
0	1326487	914	122
0	1328043	915	147
0	1329364	916	130
0	1330795	917	126
0	1332291	918	135
0	1333521	919	109
0	1334765	920	112
0	1335857	921	87
0	1337194	922	118
0	1338551	923	128
0	1340320	924	148
0	1342099	925	190
0	1343268	926	114
0	1344630	927	123
0	1345928	928	117
0	1347370	929	133
0	1348951	930	171
0	1350157	931	107
0	1351728	932	144
0	1353109	933	134
0	1354692	934	158
0	1355984	935	127
0	1357245	936	120
0	1358400	937	102
0	1359599	938	112
0	1361293	939	147
0	1362650	940	121
0	1364277	941	146
0	1365765	942	141
0	1367081	943	113
0	1368640	944	158
0	1370149	945	140
0	1371330	946	116
0	1372846	947	139
0	1374302	948	123
0	1376011	949	154
0	1377444	950	135
0	1379119	951	160
0	1380505	952	131
0	1381961	953	139
0	1383327	954	129
0	1384840	955	138
0	1386197	956	130
0	1387631	957	141
0	1389008	958	118
0	1390260	959	119
0	1391583	960	119
0	1393044	961	160
0	1394487	962	122
0	1395944	963	144
0	1397201	964	126
0	1398456	965	124
0	1400242	966	183
0	1401890	967	165
0	1403386	968	159
0	1404992	969	163
0	1406611	970	159
0	1407984	971	120
0	1409391	972	138
0	1410856	973	124
0	1412327	974	122
0	1413446	975	98
0	1414784	976	137
0	1416116	977	133
0	1417904	978	173
0	1419660	979	155
0	1421095	980	137
0	1422714	981	166
0	1424280	982	171
0	1425697	983	140
0	1427073	984	133
0	1428440	985	140
0	1429880	986	131
0	1431477	987	156
0	1432756	988	112
0	1434216	989	135
0	1435207	990	105
0	1436652	991	148
0	1438039	992	116
0	1439310	993	124
0	1440680	994	121
0	1442298	995	131
0	1443889	996	156
0	1444976	997	106
0	1446373	998	136
0	1447771	999	127
0	1449396	1000	153
0	1450756	1001	115
0	1452044	1002	141
0	1453448	1003	141
0	1454693	1004	104
0	1455936	1005	106
0	1457353	1006	124
0	1458704	1007	128
0	1460255	1008	166
0	1461634	1009	150
0	1463447	1010	177
0	1464932	1011	136
0	1466297	1012	118
0	1467588	1013	128
0	1469279	1014	178
0	1470880	1015	160
0	1472306	1016	149
0	1473737	1017	130
0	1475053	1018	119
0	1476502	1019	132
0	1477856	1020	114
0	1479023	1021	104
0	1480493	1022	143
0	1481760	1023	118
0	1483051	1024	114
0	1484254	1025	116
0	1485609	1026	136
0	1486744	1027	116
0	1488311	1028	138
0	1489830	1029	144
0	1491473	1030	173
0	1493036	1031	158
0	1494370	1032	133
0	1496037	1033	162
0	1497665	1034	155
0	1498912	1035	104
0	1500308	1036	151
0	1501741	1037	130
0	1502906	1038	114
0	1504290	1039	117
0	1506023	1040	161
0	1507134	1041	104
0	1508505	1042	128
0	1510119	1043	171
0	1511353	1044	119
0	1512831	1045	147
0	1514340	1046	152
0	1515838	1047	143
0	1517316	1048	135
0	1518941	1049	158
0	1520549	1050	138
0	1522040	1051	152
0	1523430	1052	141
0	1524536	1053	95
0	1525796	1054	125
0	1527390	1055	145
0	1528792	1056	129
0	1530326	1057	139
0	1532025	1058	180
0	1533431	1059	145
0	1534808	1060	123
0	1536003	1061	118
0	1537389	1062	127
0	1538793	1063	121
0	1540160	1064	122
0	1541300	1065	115
0	1542884	1066	147
0	1544421	1067	152
0	1545824	1068	118
0	1547571	1069	164
0	1548818	1070	111
0	1550537	1071	168
0	1552088	1072	156
0	1553574	1073	147
0	1555378	1074	175
0	1556841	1075	146
0	1558447	1076	133
0	1559811	1077	133
0	1561215	1078	127
0	1562966	1079	186
0	1564603	1080	157
0	1565804	1081	122
0	1567547	1082	172
0	1569120	1083	152
0	1570642	1084	155
0	1572348	1085	197
0	1573917	1086	142
0	1575200	1087	114
0	1576611	1088	146
0	1578215	1089	169
0	1579492	1090	125
0	1580945	1091	154
0	1582174	1092	124
0	1583912	1093	167
0	1585401	1094	132
0	1587041	1095	165
0	1588344	1096	122
0	1589962	1097	163
0	1591281	1098	130
0	1592335	1099	95
0	1593688	1100	123
0	1595420	1101	171
0	1596804	1102	139
0	1598408	1103	131
0	1600250	1104	181
0	1601779	1105	156
0	1602823	1106	101
0	1604198	1107	130
0	1605662	1108	129
0	1607412	1109	169
0	1608759	1110	127
0	1610204	1111	138
0	1611684	1112	145
0	1612819	1113	116
0	1614028	1114	120
0	1615413	1115	128
0	1616630	1116	106
0	1618309	1117	154
0	1619677	1118	127
0	1621101	1119	121
0	1622993	1120	184
0	1624278	1121	116
0	1625365	1122	92
0	1626726	1123	110
0	1628071	1124	122
0	1629424	1125	122
0	1630564	1126	93
0	1632059	1127	148
0	1633308	1128	110
0	1634405	1129	96
0	1635973	1130	144
0	1637462	1131	136
0	1639255	1132	184
0	1640868	1133	148
0	1642206	1134	119
0	1643918	1135	153
0	1645350	1136	133
0	1646889	1137	142
0	1648502	1138	160
0	1650052	1139	171
0	1651792	1140	164
0	1653077	1141	114
0	1654571	1142	155
0	1655981	1143	157
0	1657244	1144	122
0	1658597	1145	120
0	1659993	1146	147
0	1661739	1147	171
0	1663140	1148	138
0	1664863	1149	182
0	1666272	1150	135
0	1667619	1151	124
0	1669609	1152	181
0	1670899	1153	127
0	1672509	1154	139
0	1673808	1155	110
0	1675242	1156	157
0	1676723	1157	158
0	1677829	1158	95
0	1679164	1159	124
0	1680584	1160	130
0	1682530	1161	211
0	1683902	1162	125
0	1685165	1163	118
0	1686654	1164	134
0	1688193	1165	140
0	1689636	1166	130
0	1691314	1167	175
0	1692976	1168	155
0	1694721	1169	156
0	1696150	1170	135
0	1697602	1171	137
0	1699143	1172	162
0	1700978	1173	194
0	1702335	1174	132
0	1703787	1175	147
0	1705323	1176	155
0	1706463	1177	93
0	1708012	1178	156
0	1709772	1179	183
0	1711507	1180	173
0	1712994	1181	160
0	1714110	1182	107
0	1715797	1183	162
0	1717214	1184	132
0	1718546	1185	125
0	1719923	1186	120
0	1721456	1187	144
0	1723232	1188	157
0	1724795	1189	156
0	1726393	1190	158
0	1727469	1191	97
0	1729143	1192	159
0	1730498	1193	124
0	1731685	1194	100
0	1733143	1195	149
0	1734531	1196	129
0	1735734	1197	110
0	1736954	1198	121
0	1738769	1199	182
0	1740226	1200	131
0	1741537	1201	132
0	1742971	1202	143
0	1744732	1203	180
0	1746072	1204	131
0	1747339	1205	118
0	1748982	1206	154
0	1750444	1207	125
0	1751660	1208	123
0	1752918	1209	133
0	1754025	1210	97
0	1755522	1211	162
0	1757121	1212	162
0	1758429	1213	117
0	1759796	1214	126
0	1761174	1215	119
0	1762418	1216	119
0	1763699	1217	106
0	1765511	1218	169
0	1766629	1219	103
0	1768015	1220	130
0	1769492	1221	132
0	1770868	1222	145
0	1772283	1223	118
0	1773577	1224	137
0	1775640	1225	212
0	1777356	1226	169
0	1778887	1227	142
0	1780245	1228	147
0	1781535	1229	123
0	1782827	1230	110
0	1784140	1231	134
0	1785215	1232	102
0	1786656	1233	132
0	1788144	1234	129
0	1789681	1235	148
0	1791039	1236	137
0	1792831	1237	171
0	1794400	1238	168
0	1795751	1239	134
0	1796906	1240	103
0	1798521	1241	168
0	1799957	1242	135
0	1801586	1243	160
0	1803023	1244	136
0	1804605	1245	139
0	1806182	1246	138
0	1807190	1247	91
0	1809121	1248	194
0	1810675	1249	163
0	1812287	1250	150
0	1813789	1251	131
0	1815043	1252	111
0	1816452	1253	144
0	1817991	1254	162
0	1819413	1255	139
0	1820707	1256	115
0	1822007	1257	113
0	1823292	1258	114
0	1824948	1259	169
0	1826618	1260	152
0	1828178	1261	149
0	1829634	1262	133
0	1831090	1263	137
0	1832569	1264	138
0	1833866	1265	126
0	1835132	1266	113
0	1836530	1267	135
0	1838124	1268	165
0	1839897	1269	178
0	1841763	1270	198
0	1843013	1271	119
0	1844304	1272	98
0	1846004	1273	171
0	1847419	1274	136
0	1848633	1275	107
0	1849952	1276	146
0	1851362	1277	135
0	1853232	1278	179
0	1854523	1279	114
0	1856170	1280	151
0	1857526	1281	123
0	1858858	1282	119
0	1860103	1283	126
0	1861518	1284	134
0	1863175	1285	154
0	1864365	1286	121
0	1866071	1287	155
0	1867438	1288	134
0	1868856	1289	125
0	1870254	1290	140
0	1871758	1291	151
0	1873127	1292	130
0	1874880	1293	176
0	1876626	1294	175
0	1877951	1295	136
0	1879381	1296	139
0	1880716	1297	130
0	1881856	1298	105
0	1883474	1299	179
0	1885148	1300	158
0	1886836	1301	171
0	1888492	1302	155
0	1889902	1303	141
0	1891288	1304	125
0	1892567	1305	102
0	1894286	1306	148
0	1895624	1307	127
0	1897076	1308	137
0	1898368	1309	115
0	1900146	1310	196
0	1901521	1311	134
0	1902779	1312	113
0	1904191	1313	117
0	1905708	1314	132
0	1907237	1315	136
0	1908792	1316	138
0	1910418	1317	153
0	1912270	1318	181
0	1913928	1319	161
0	1915302	1320	120
0	1916743	1321	150
0	1918377	1322	179
0	1919528	1323	108
0	1921088	1324	151
0	1922559	1325	146
0	1923664	1326	108
0	1924949	1327	108
0	1926388	1328	138
0	1927968	1329	167
0	1929472	1330	158
0	1930703	1331	106
0	1931839	1332	127
0	1933440	1333	150
0	1934803	1334	142
0	1936513	1335	163
0	1938010	1336	152
0	1939371	1337	128
0	1941293	1338	225
0	1942456	1339	108
0	1944053	1340	151
0	1944918	1341	84
0	1946273	1342	122
0	1947591	1343	109
0	1948864	1344	130
0	1950241	1345	132
0	1951849	1346	169
0	1953458	1347	170
0	1954958	1348	141
0	1956622	1349	159
0	1957802	1350	120
0	1959329	1351	150
0	1961110	1352	178
0	1962760	1353	159
0	1964147	1354	128
0	1965582	1355	134
0	1966928	1356	135
0	1968328	1357	129
0	1969810	1358	145
0	1971236	1359	141
0	1972353	1360	103
0	1973600	1361	110
0	1974897	1362	126
0	1976356	1363	152
0	1977765	1364	136
0	1979513	1365	149
0	1981316	1366	178
0	1982884	1367	155
0	1984134	1368	113
0	1985249	1369	120
0	1986618	1370	141
0	1987805	1371	114
0	1989290	1372	142
0	1990867	1373	146
0	1992508	1374	146
0	1993973	1375	126
0	1995628	1376	166
0	1996975	1377	114
0	1998416	1378	146
0	1999688	1379	129
0	2001127	1380	117
0	2002452	1381	116
0	2004051	1382	150
0	2005490	1383	128
0	2007101	1384	172
0	2008444	1385	132
0	2009653	1386	112
0	2010909	1387	121
0	2012338	1388	136
0	2013892	1389	167
0	2015381	1390	133
0	2016814	1391	138
0	2017905	1392	94
0	2019283	1393	131
0	2020657	1394	127
0	2021940	1395	126
0	2023584	1396	159
0	2025029	1397	128
0	2026207	1398	113
0	2027772	1399	160
0	2029370	1400	158
0	2030761	1401	130
0	2032290	1402	140
0	2033875	1403	156
0	2035464	1404	130
0	2036686	1405	137
0	2038142	1406	145
0	2039910	1407	181
0	2041512	1408	143
0	2043185	1409	148
0	2044931	1410	178
0	2046435	1411	159
0	2047637	1412	105
0	2049022	1413	150
0	2050587	1414	166
0	2051734	1415	110
0	2053361	1416	152
0	2055034	1417	158
0	2056583	1418	164
0	2058185	1419	167
0	2059737	1420	130
0	2060950	1421	110
0	2062862	1422	201
0	2064482	1423	155
0	2065693	1424	112
0	2067321	1425	159
0	2068840	1426	152
0	2070311	1427	146
0	2071877	1428	155
0	2073652	1429	196
0	2075165	1430	133
0	2076527	1431	113
0	2077770	1432	128
0	2078888	1433	119
0	2080393	1434	156
0	2081950	1435	162
0	2083284	1436	125
0	2084702	1437	131
0	2086326	1438	161
0	2087949	1439	144
0	2089024	1440	87
0	2090528	1441	155
0	2092254	1442	181
0	2093996	1443	167
0	2095452	1444	157
0	2096719	1445	98
0	2098165	1446	157
0	2099430	1447	106
0	2100771	1448	124
0	2102090	1449	122
0	2103650	1450	132
0	2105012	1451	113
0	2106273	1452	122
0	2107842	1453	138
0	2109052	1454	109
0	2110606	1455	159
0	2112231	1456	134
0	2113660	1457	152
0	2114966	1458	133
0	2116158	1459	111
0	2117594	1460	150
0	2118999	1461	136
0	2120636	1462	164
0	2122291	1463	144
0	2123846	1464	140
0	2125197	1465	120
0	2126306	1466	104
0	2127728	1467	125
0	2129134	1468	135
0	2130672	1469	129
0	2132024	1470	104
0	2133226	1471	113
0	2134859	1472	184
0	2136219	1473	141
0	2137689	1474	119
0	2139211	1475	131
0	2140401	1476	123
0	2141802	1477	152
0	2143048	1478	121
0	2144237	1479	110
0	2145561	1480	100
0	2146826	1481	120
0	2148540	1482	179
0	2150014	1483	147
0	2151549	1484	134
0	2152918	1485	134
0	2154367	1486	130
0	2155982	1487	182
0	2157502	1488	153
0	2159020	1489	139
0	2160766	1490	158
0	2162056	1491	127
0	2163720	1492	143
0	2165291	1493	156
0	2166873	1494	149
0	2168443	1495	149
0	2169935	1496	165
0	2171326	1497	126
0	2172620	1498	111
0	2173979	1499	118
0	2175442	1500	113
0	2177054	1501	157
0	2178558	1502	131
0	2179767	1503	102
0	2181532	1504	164
0	2183247	1505	152
0	2184754	1506	148
0	2186194	1507	141
0	2187554	1508	139
0	2189060	1509	149
0	2190311	1510	121
0	2191572	1511	104
0	2193247	1512	172
0	2194860	1513	146
0	2196510	1514	145
0	2198217	1515	174
0	2199928	1516	160
0	2201348	1517	133
0	2202626	1518	131
0	2204077	1519	138
0	2205464	1520	145
0	2206971	1521	142
0	2208288	1522	122
0	2209475	1523	94
0	2210892	1524	128
0	2212530	1525	177
0	2214004	1526	141
0	2215392	1527	135
0	2216911	1528	140
0	2218149	1529	113
0	2219606	1530	149
0	2221354	1531	183
0	2222950	1532	131
0	2224418	1533	147
0	2225778	1534	133
0	2227412	1535	147
0	2228848	1536	121
0	2230379	1537	144
0	2231848	1538	146
0	2233523	1539	146
0	2234968	1540	155
0	2236289	1541	132
0	2237776	1542	146
0	2239189	1543	136
0	2240963	1544	183
0	2242565	1545	141
0	2244329	1546	173
0	2246003	1547	143
0	2247501	1548	135
0	2248804	1549	116
0	2250220	1550	140
0	2251911	1551	156
0	2253169	1552	109
0	2254456	1553	144
0	2255860	1554	131
0	2257535	1555	154
0	2259023	1556	157
0	2260504	1557	136
0	2261855	1558	128
0	2263474	1559	156
0	2265085	1560	173
0	2266274	1561	104
0	2267882	1562	149
0	2268952	1563	107
0	2270480	1564	171
0	2272090	1565	149
0	2273496	1566	143
0	2274933	1567	150
0	2276457	1568	153
0	2278146	1569	178
0	2279805	1570	157
0	2281120	1571	118
0	2282648	1572	145
0	2284065	1573	140
0	2285441	1574	133
0	2286676	1575	126
0	2288072	1576	137
0	2289356	1577	127
0	2290689	1578	126
0	2292343	1579	175
0	2293878	1580	145
0	2295360	1581	143
0	2296496	1582	107
0	2297893	1583	124
0	2299140	1584	116
0	2300852	1585	161
0	2302413	1586	154
0	2303707	1587	105
0	2305189	1588	127
0	2306830	1589	176
0	2308215	1590	123
0	2309871	1591	161
0	2311423	1592	139
0	2312558	1593	104
0	2313807	1594	120
0	2315457	1595	155
0	2316709	1596	113
0	2318055	1597	143
0	2319612	1598	144
0	2321158	1599	147
0	2322479	1600	139
0	2323897	1601	127
0	2325182	1602	126
0	2326659	1603	130
0	2328027	1604	145
0	2329679	1605	159
0	2331233	1606	161
0	2333011	1607	197
0	2334432	1608	142
0	2335851	1609	140
0	2337201	1610	122
0	2338893	1611	153
0	2340741	1612	175
0	2342296	1613	152
0	2343954	1614	161