version 3
run SimulationTime-227-20240108-13:22:04-10500
attr configname SimulationTime
attr datetime 20240108-13:22:04
attr datetimef 20240108-132204
attr experiment SimulationTime
attr inifile omnetpp.ini
attr iterationvars ""
attr iterationvarsd ""
attr iterationvarsf ""
attr measurement ""
attr network System
attr processid 10500
attr repetition 227
attr replication #227
attr resultdir results
attr runnumber 227
attr seedset 227
config **.cpu.rate 1000
config **.hd.rateProcessing 250
config **.webServer.web_server_rate 100
config **.p1 0.35
config **.p2 0.40
config network System
config num-rngs 4
config **.cpu.rng-0 0
config **.cpu.rng-1 1
config **.hd.rng-0 2
config **.webServer.rng-0 3
config repeat 500
config seed-set 227
config sim-time-limit 10000s
config **.client.numClients 40

vector 0 System.server.cpu requestCounterStat:vector ETV
attr recordingmode vector
attr source requestCounter
vector 1 System.server.hd utilizationHdStat:vector ETV
attr recordingmode vector
attr source utilizationHd
vector 2 System.server.cpu utilizationCpuStat:vector ETV
attr recordingmode vector
attr source utilizationCpu
vector 3 System.webServer utilizationWsStat:vector ETV
attr recordingmode vector
attr source utilizationWs
0	1827	1	172
0	3304	2	130
0	4892	3	153
0	6341	4	128
0	7826	5	140
0	9213	6	114
0	10675	7	163
0	12035	8	135
0	13788	9	184
0	15233	10	155
0	16783	11	149
0	18097	12	127
0	19325	13	109
0	20908	14	158
0	22268	15	137
0	23514	16	105
0	25434	17	193
0	27033	18	148
0	28806	19	182
0	30400	20	156
0	31764	21	121
0	33298	22	141
0	34585	23	102
0	35636	24	106
0	37079	25	148
0	38455	26	133
0	39713	27	115
0	40843	28	107
0	42329	29	135
0	43831	30	150
0	45291	31	145
0	46670	32	116
0	48082	33	145
0	49398	34	107
0	50935	35	122
0	52449	36	133
0	53792	37	136
0	55062	38	117
0	56315	39	128
0	57882	40	157
0	59386	41	139
0	60972	42	149
0	62421	43	140
0	63762	44	112
0	65157	45	128
0	66931	46	169
0	68448	47	158
0	70140	48	159
0	71875	49	202
0	73530	50	163
0	74734	51	119
0	76401	52	154
0	78093	53	157
0	79737	54	173
0	81147	55	147
0	82587	56	129
0	83971	57	115
0	85313	58	125
0	87057	59	157
0	88572	60	143
0	89941	61	130
0	91559	62	139
0	93145	63	171
0	94554	64	136
0	95933	65	114
0	97271	66	107
0	98911	67	165
0	100316	68	134
0	101351	69	90
0	102586	70	127
0	103747	71	110
0	105333	72	141
0	106579	73	117
0	108192	74	166
0	109606	75	131
0	110994	76	133
0	112113	77	102
0	113662	78	148
0	115265	79	146
0	116857	80	160
0	118742	81	192
0	120093	82	120
0	121519	83	137
0	122742	84	110
0	124575	85	168
0	125903	86	133
0	127466	87	162
0	129002	88	139
0	130491	89	158
0	132024	90	153
0	133405	91	132
0	135015	92	137
0	136639	93	157
0	138104	94	132
0	139797	95	170
0	141415	96	129
0	142848	97	118
0	144256	98	131
0	145841	99	160
0	147083	100	114
0	148296	101	120
0	149748	102	141
0	151465	103	156
0	153004	104	154
0	154387	105	150
0	155968	106	150
0	157553	107	162
0	159190	108	138
0	160495	109	126
0	161732	110	127
0	162945	111	108
0	164311	112	127
0	165756	113	122
0	167144	114	137
0	169017	115	176
0	170467	116	145
0	172024	117	132
0	173590	118	171
0	175280	119	177
0	176944	120	158
0	178468	121	161
0	179853	122	132
0	181428	123	140
0	183187	124	156
0	184679	125	131
0	186481	126	173
0	188137	127	143
0	189477	128	127
0	190743	129	119
0	192433	130	158
0	193792	131	140
0	195630	132	165
0	197075	133	140
0	198516	134	148
0	200059	135	150
0	201288	136	128
0	202616	137	101
0	203957	138	144
0	205661	139	167
0	206749	140	102
0	208503	141	187
0	210401	142	207
0	211927	143	163
0	213198	144	122
0	214859	145	146
0	216486	146	172
0	217828	147	115
0	219409	148	142
0	220671	149	111
0	222410	150	185
0	223871	151	142
0	225269	152	129
0	226747	153	147
0	228478	154	160
0	229787	155	124
0	230892	156	100
0	232348	157	133
0	234353	158	208
0	236025	159	189
0	237205	160	104
0	238834	161	172
0	240430	162	151
0	241860	163	137
0	243003	164	100
0	244260	165	118
0	245832	166	143
0	247379	167	158
0	248891	168	147
0	250557	169	161
0	251938	170	131
0	253120	171	115
0	254576	172	129
0	255998	173	125
0	257719	174	156
0	259472	175	166
0	261412	176	179
0	263195	177	178
0	264517	178	139
0	266346	179	188
0	267979	180	151
0	269329	181	125
0	270786	182	150
0	272113	183	118
0	273516	184	144
0	275385	185	186
0	277174	186	172
0	278874	187	169
0	280263	188	134
0	281313	189	93
0	282575	190	126
0	284072	191	160
0	285517	192	132
0	286931	193	131
0	288391	194	141
0	289802	195	134
0	291202	196	153
0	292589	197	138
0	294213	198	165
0	295593	199	125
0	297129	200	136
0	298562	201	148
0	299676	202	99
0	301089	203	136
0	302178	204	104
0	303807	205	168
0	305310	206	130
0	306773	207	134
0	308133	208	123
0	309647	209	145
0	311266	210	151
0	312567	211	130
0	314110	212	150
0	315563	213	132
0	317163	214	147
0	319031	215	179
0	320431	216	153
0	321801	217	129
0	323150	218	126
0	324562	219	133
0	326042	220	164
0	327670	221	163
0	329416	222	161
0	330924	223	121
0	332466	224	163
0	334231	225	190
0	335490	226	116
0	336947	227	168
0	338467	228	137
0	339873	229	131
0	341533	230	160
0	343220	231	146
0	344552	232	129
0	346579	233	198
0	347775	234	117
0	349193	235	123
0	350829	236	157
0	352375	237	137
0	353926	238	168
0	355469	239	146
0	356666	240	119
0	358157	241	136
0	359427	242	125
0	361020	243	142
0	362162	244	101
0	363697	245	154
0	365237	246	159
0	366863	247	155
0	368360	248	154
0	369726	249	119
0	371278	250	140
0	372878	251	161
0	374162	252	117
0	375383	253	116
0	376828	254	130
0	378186	255	131
0	380077	256	204
0	382137	257	213
0	383684	258	150
0	385238	259	151
0	386495	260	119
0	388173	261	163
0	389609	262	145
0	390758	263	116
0	392065	264	132
0	393537	265	129
0	395153	266	147
0	396951	267	171
0	398686	268	170
0	400410	269	177
0	402251	270	179
0	403657	271	143
0	404962	272	120
0	406157	273	122
0	407266	274	96
0	408636	275	123
0	409925	276	110
0	411147	277	105
0	412857	278	165
0	414272	279	138
0	415676	280	142
0	416968	281	101
0	418810	282	191
0	420192	283	133
0	421704	284	139
0	423052	285	123
0	425104	286	221
0	426530	287	127
0	427970	288	135
0	429407	289	132
0	430612	290	111
0	431985	291	128
0	433271	292	121
0	434726	293	150
0	436292	294	153
0	437431	295	104
0	438909	296	153
0	440282	297	116
0	441886	298	163
0	443932	299	221
0	445177	300	99
0	446252	301	90
0	448006	302	155
0	449650	303	145
0	451335	304	156
0	452904	305	144
0	454664	306	157
0	456360	307	153
0	458079	308	178
0	459998	309	194
0	461836	310	194
0	463190	311	139
0	464663	312	122
0	465694	313	96
0	467026	314	121
0	468435	315	140
0	470168	316	182
0	471520	317	127
0	473316	318	171
0	475027	319	172
0	476550	320	145
0	477956	321	135
0	479089	322	100
0	480311	323	127
0	481920	324	166
0	483533	325	162
0	485503	326	199
0	487047	327	153
0	488455	328	127
0	489724	329	126
0	491062	330	134
0	492394	331	121
0	493749	332	130
0	495064	333	138
0	496507	334	124
0	497774	335	96
0	499263	336	142
0	500526	337	120
0	501828	338	127
0	503555	339	176
0	504864	340	129
0	506375	341	148
0	507549	342	115
0	508762	343	126
0	510434	344	159
0	511714	345	127
0	513161	346	142
0	514614	347	128
0	515954	348	137
0	517402	349	141
0	518826	350	140
0	520046	351	123
0	521349	352	116
0	522876	353	138
0	524284	354	133
0	525614	355	119
0	527081	356	158
0	528418	357	104
0	530188	358	159
0	531614	359	139
0	532994	360	132
0	534393	361	142
0	535513	362	115
0	537317	363	167
0	538979	364	159
0	540240	365	128
0	541850	366	147
0	543001	367	86
0	544351	368	161
0	545522	369	100
0	546804	370	134
0	548425	371	156
0	549794	372	136
0	551380	373	163
0	552549	374	108
0	553841	375	125
0	555498	376	134
0	557146	377	155
0	558711	378	152
0	560471	379	163
0	561959	380	154
0	563438	381	136
0	564870	382	131
0	566142	383	125
0	567668	384	147
0	569077	385	136
0	570863	386	187
0	572278	387	114
0	573737	388	126
0	574865	389	113
0	576287	390	134
0	577723	391	127
0	579022	392	114
0	580709	393	172
0	582190	394	122
0	583642	395	155
0	585089	396	150
0	586549	397	149
0	587842	398	140
0	588898	399	97
0	590573	400	145
0	592159	401	155
0	593442	402	118
0	595082	403	167
0	596527	404	158
0	598133	405	147
0	599434	406	130
0	600969	407	144
0	602489	408	143
0	603828	409	138
0	605348	410	158
0	606794	411	149
0	608566	412	151
0	609753	413	106
0	611180	414	128
0	612437	415	114
0	613898	416	158
0	615444	417	153
0	616748	418	125
0	618226	419	123
0	619896	420	170
0	621366	421	151
0	622939	422	152
0	624501	423	163
0	625601	424	97
0	627136	425	150
0	628396	426	109
0	629504	427	109
0	630999	428	150
0	632327	429	121
0	634069	430	162
0	635280	431	116
0	636921	432	146
0	638678	433	164
0	640106	434	133
0	641356	435	111
0	642869	436	152
0	644147	437	125
0	645521	438	125
0	647095	439	171
0	648411	440	132
0	649775	441	121
0	651061	442	115
0	652432	443	114
0	653894	444	147
0	655445	445	142
0	656741	446	113
0	658439	447	149
0	660001	448	141
0	661209	449	107
0	662745	450	150
0	664304	451	138
0	665766	452	147
0	666937	453	112
0	668749	454	205
0	670375	455	153
0	671890	456	138
0	673226	457	113
0	674662	458	143
0	676123	459	146
0	677474	460	149
0	678974	461	145
0	680486	462	157
0	682139	463	160
0	683672	464	148
0	685134	465	139
0	686468	466	135
0	687912	467	147
0	689534	468	153
0	690863	469	112
0	692537	470	158
0	694009	471	135
0	695342	472	134
0	696632	473	119
0	697962	474	139
0	699318	475	121
0	700675	476	148
0	701972	477	116
0	703310	478	113
0	704796	479	117
0	706482	480	154
0	707926	481	145
0	709486	482	161
0	710731	483	124
0	712374	484	166
0	714013	485	162
0	715465	486	137
0	716717	487	127
0	718401	488	159
0	719904	489	144
0	721760	490	194
0	723123	491	124
0	724414	492	140
0	725852	493	141
0	727574	494	181
0	728566	495	103
0	729831	496	122
0	731195	497	131
0	732812	498	166
0	734713	499	212
0	736320	500	163
0	737779	501	132
0	739274	502	146
0	740870	503	153
0	742435	504	150
0	744093	505	153
0	745593	506	125
0	747419	507	183
0	749165	508	171
0	750428	509	110
0	751969	510	139
0	753552	511	132
0	754918	512	137
0	756401	513	142
0	758114	514	174
0	759829	515	176
0	761196	516	128
0	762710	517	135
0	764058	518	127
0	765457	519	142
0	767033	520	152
0	768445	521	151
0	769784	522	128
0	771265	523	142
0	772497	524	127
0	774034	525	150
0	775317	526	120
0	776670	527	136
0	778005	528	134
0	779427	529	139
0	780883	530	154
0	782063	531	109
0	783492	532	142
0	784903	533	166
0	786537	534	157
0	787854	535	126
0	789114	536	125
0	790654	537	153
0	792371	538	160
0	793818	539	134
0	795513	540	161
0	797134	541	160
0	798526	542	137
0	799830	543	127
0	801033	544	108
0	802313	545	129
0	803865	546	145
0	805121	547	99
0	806833	548	151
0	808130	549	128
0	809569	550	127
0	810880	551	136
0	812310	552	143
0	813819	553	156
0	815155	554	127
0	816619	555	135
0	818011	556	121
0	819548	557	128
0	820907	558	120
0	822646	559	166
0	824167	560	157
0	825366	561	104
0	826574	562	107
0	827907	563	132
0	829350	564	136
0	830852	565	125
0	832578	566	183
0	834111	567	158
0	835556	568	150
0	836980	569	145
0	838365	570	145
0	839771	571	125
0	841173	572	135
0	842541	573	143
0	844028	574	156
0	845575	575	142
0	846955	576	121
0	848059	577	109
0	849400	578	120
0	851088	579	165
0	852522	580	130
0	854024	581	143
0	855627	582	170
0	857054	583	132
0	858803	584	178
0	860380	585	134
0	861701	586	134
0	863134	587	144
0	864778	588	145
0	866147	589	128
0	867665	590	150
0	868923	591	117
0	870453	592	155
0	871839	593	113
0	873362	594	138
0	874688	595	131
0	876396	596	181
0	878084	597	161
0	879496	598	127
0	880971	599	132
0	882355	600	132
0	883977	601	165
0	885492	602	160
0	887055	603	152
0	888274	604	98
0	889731	605	144
0	891143	606	153
0	892669	607	145
0	894390	608	166
0	895872	609	161
0	897511	610	171
0	899196	611	162
0	900433	612	102
0	901800	613	144
0	903523	614	174
0	904750	615	122
0	906396	616	151
0	907941	617	156
0	909565	618	153
0	910932	619	158
0	912201	620	111
0	913610	621	148
0	915197	622	170
0	916756	623	158
0	918153	624	136
0	919439	625	115
0	920934	626	140
0	922548	627	151
0	923908	628	123
0	925712	629	185
0	927259	630	165
0	928957	631	159
0	930707	632	175
0	932498	633	182
0	934057	634	140
0	935464	635	132
0	936964	636	135
0	938445	637	134
0	940042	638	154
0	941781	639	178
0	943464	640	175
0	945122	641	147
0	947005	642	186
0	948681	643	155
0	950552	644	166
0	951947	645	130
0	953391	646	163
0	954816	647	130
0	956493	648	170
0	957935	649	135
0	959435	650	140
0	960887	651	123
0	962420	652	140
0	963993	653	126
0	965623	654	163
0	967097	655	153
0	968311	656	113
0	969999	657	157
0	971429	658	143
0	973017	659	179
0	974754	660	149
0	976231	661	140
0	977748	662	160
0	979508	663	165
0	981034	664	171
0	982315	665	122
0	983437	666	97
0	984718	667	116
0	986144	668	133
0	987511	669	116
0	988769	670	110
0	990496	671	148
0	992039	672	148
0	993471	673	141
0	994837	674	137
0	996719	675	165
0	998304	676	164
0	999792	677	147
0	1001246	678	125
0	1003266	679	197
0	1004712	680	126
0	1006262	681	147
0	1007687	682	154
0	1009024	683	138
0	1010340	684	121
0	1011648	685	113
0	1013635	686	206
0	1015349	687	161
0	1016993	688	153
0	1018498	689	130
0	1020085	690	157
0	1021516	691	162
0	1022963	692	154
0	1024526	693	162
0	1025753	694	114
0	1027299	695	159
0	1028741	696	139
0	1029980	697	110
0	1031202	698	115
0	1032814	699	157
0	1034518	700	164
0	1036039	701	154
0	1037572	702	174
0	1038935	703	138
0	1040519	704	143
0	1041801	705	115
0	1043274	706	126
0	1044512	707	129
0	1045961	708	146
0	1047547	709	165
0	1049080	710	155
0	1050574	711	157
0	1052009	712	142
0	1053482	713	144
0	1054893	714	146
0	1056320	715	122
0	1057866	716	131
0	1059306	717	153
0	1060912	718	149
0	1062566	719	149
0	1063860	720	118
0	1065260	721	145
0	1066772	722	151
0	1068183	723	122
0	1069677	724	145
0	1071123	725	125
0	1072716	726	130
0	1074132	727	137
0	1075231	728	90
0	1076729	729	139
0	1078206	730	143
0	1079705	731	156
0	1081257	732	147
0	1082258	733	100
0	1083641	734	146
0	1085486	735	184
0	1086981	736	142
0	1088531	737	143
0	1089941	738	129
0	1091273	739	133
0	1092917	740	156
0	1094305	741	139
0	1095398	742	92
0	1096796	743	139
0	1098308	744	153
0	1099843	745	154
0	1101120	746	116
0	1102750	747	161
0	1104520	748	181
0	1106012	749	143
0	1107681	750	171
0	1109053	751	125
0	1110615	752	145
0	1112185	753	155
0	1113508	754	114
0	1115211	755	158
0	1116660	756	140
0	1118143	757	134
0	1119553	758	141
0	1120971	759	149
0	1122622	760	171
0	1123998	761	123
0	1125392	762	133
0	1126770	763	131
0	1128252	764	145
0	1129575	765	124
0	1131079	766	137
0	1132877	767	175
0	1134454	768	150
0	1135614	769	113
0	1137226	770	156
0	1138600	771	123
0	1140167	772	150
0	1141557	773	133
0	1143041	774	147
0	1144502	775	142
0	1146022	776	135
0	1147597	777	156
0	1148859	778	109
0	1150289	779	123
0	1151458	780	111
0	1152934	781	135
0	1154636	782	181
0	1155810	783	119
0	1157156	784	133
0	1158700	785	155
0	1160341	786	160
0	1161778	787	128
0	1163688	788	207
0	1164992	789	125
0	1166930	790	190
0	1168610	791	161
0	1170193	792	152
0	1171929	793	167
0	1173604	794	178
0	1175061	795	146
0	1176487	796	129
0	1177792	797	128
0	1179443	798	162
0	1180791	799	149
0	1182211	800	150
0	1183810	801	168
0	1185088	802	111
0	1186323	803	114
0	1187865	804	141
0	1189298	805	138
0	1190868	806	155
0	1192340	807	129
0	1193668	808	119
0	1195102	809	133
0	1196783	810	153
0	1198450	811	162
0	1200293	812	170
0	1201773	813	147
0	1203047	814	121
0	1204623	815	149
0	1205804	816	94
0	1207205	817	152
0	1208395	818	107
0	1209941	819	155
0	1211134	820	87
0	1212605	821	160
0	1213996	822	132
0	1215577	823	158
0	1217171	824	153
0	1218819	825	141
0	1219900	826	98
0	1221260	827	127
0	1222666	828	133
0	1224336	829	185
0	1225791	830	141
0	1227642	831	198
0	1228842	832	109
0	1230276	833	153
0	1231991	834	180
0	1233692	835	164
0	1235348	836	181
0	1236808	837	129
0	1238473	838	164
0	1239902	839	140
0	1241477	840	157
0	1242869	841	133
0	1244380	842	138
0	1246212	843	181
0	1247542	844	135
0	1249168	845	171
0	1250580	846	141
0	1251776	847	103
0	1253322	848	137
0	1255099	849	172
0	1256787	850	158
0	1258517	851	177
0	1259826	852	128
0	1261388	853	167
0	1262782	854	127
0	1264331	855	170
0	1265873	856	157
0	1267214	857	136
0	1268464	858	115
0	1269799	859	128
0	1271090	860	111
0	1272726	861	151
0	1274335	862	158
0	1275897	863	129
0	1277271	864	109
0	1278960	865	162
0	1280383	866	142
0	1281396	867	92
0	1282894	868	149
0	1284065	869	104
0	1285153	870	106
0	1286668	871	150
0	1288185	872	144
0	1290109	873	205
0	1291608	874	150
0	1293083	875	138
0	1294621	876	147
0	1296373	877	167
0	1298134	878	168
0	1299431	879	146
0	1300897	880	130
0	1302264	881	118
0	1303813	882	164
0	1305343	883	145
0	1306912	884	162
0	1308517	885	168
0	1309973	886	133
0	1311317	887	133
0	1312624	888	118
0	1314138	889	139
0	1315701	890	161
0	1317438	891	194
0	1319255	892	192
0	1320613	893	133
0	1322089	894	145
0	1323486	895	152
0	1325028	896	155
0	1326520	897	129
0	1327976	898	145
0	1329335	899	126
0	1330772	900	135
0	1332085	901	116
0	1333425	902	119
0	1334779	903	127
0	1335906	904	96
0	1337637	905	180
0	1339013	906	131
0	1340322	907	128
0	1341774	908	143
0	1343424	909	163
0	1344703	910	121
0	1346417	911	161
0	1347816	912	132
0	1349705	913	164
0	1351508	914	198
0	1352767	915	112
0	1354292	916	174
0	1355737	917	142
0	1357568	918	178
0	1359144	919	145
0	1360853	920	161
0	1362560	921	186
0	1364187	922	160
0	1365525	923	135
0	1367249	924	177
0	1368611	925	121
0	1370193	926	165
0	1371927	927	175
0	1373518	928	152
0	1374944	929	149
0	1376282	930	132
0	1377843	931	156
0	1379411	932	139
0	1381079	933	155
0	1382524	934	154
0	1384103	935	136
0	1385680	936	176
0	1387035	937	142
0	1388311	938	123
0	1390008	939	146
0	1391947	940	175
0	1393355	941	133
0	1394854	942	138
0	1396340	943	145
0	1397711	944	132
0	1399424	945	154
0	1400742	946	133
0	1402111	947	120
0	1403809	948	171
0	1405211	949	123
0	1406777	950	146
0	1407812	951	98
0	1409115	952	116
0	1410352	953	106
0	1412115	954	166
0	1413763	955	161
0	1415332	956	156
0	1416729	957	148
0	1418182	958	148
0	1419250	959	103
0	1420660	960	148
0	1422197	961	132
0	1423589	962	149
0	1424820	963	104
0	1426246	964	125
0	1427969	965	172
0	1429274	966	146
0	1430639	967	152
0	1432008	968	126
0	1433495	969	136
0	1434918	970	135
0	1436692	971	165
0	1438236	972	157
0	1439586	973	121
0	1440751	974	122
0	1442160	975	136
0	1443667	976	170
0	1445190	977	136
0	1446813	978	150
0	1448147	979	133
0	1449788	980	151
0	1451044	981	123
0	1452514	982	121
0	1453701	983	110
0	1455045	984	107
0	1456410	985	142
0	1457882	986	157
0	1459305	987	110
0	1460663	988	133
0	1462146	989	136
0	1463737	990	149
0	1465275	991	161
0	1466807	992	151
0	1468085	993	135
0	1469702	994	152
0	1471014	995	141
0	1472668	996	167
0	1473946	997	103
0	1475692	998	179
0	1477316	999	177
0	1478735	1000	149
0	1480320	1001	158
0	1482013	1002	134
0	1483365	1003	133
0	1484928	1004	152
0	1486502	1005	161
0	1488004	1006	147
0	1489040	1007	93
0	1490556	1008	137
0	1491698	1009	111
0	1493260	1010	156
0	1494680	1011	125
0	1496126	1012	147
0	1497828	1013	161
0	1498810	1014	89
0	1500023	1015	118
0	1501300	1016	112
0	1502879	1017	170
0	1504006	1018	106
0	1505215	1019	102
0	1506770	1020	147
0	1507865	1021	116
0	1509248	1022	116
0	1510551	1023	138
0	1511796	1024	120
0	1513231	1025	120
0	1514781	1026	145
0	1516066	1027	104
0	1517633	1028	150
0	1519109	1029	125
0	1520604	1030	145
0	1522134	1031	143
0	1523366	1032	113
0	1524598	1033	109
0	1526064	1034	151
0	1527490	1035	147
0	1529225	1036	178
0	1530237	1037	97
0	1531638	1038	144
0	1532903	1039	120
0	1534269	1040	128
0	1536056	1041	164
0	1537318	1042	125
0	1538798	1043	131
0	1540447	1044	168
0	1541937	1045	139
0	1543090	1046	108
0	1544474	1047	141
0	1545743	1048	106
0	1546987	1049	107
0	1548425	1050	138
0	1549824	1051	126
0	1551307	1052	138
0	1552650	1053	130
0	1554380	1054	167
0	1555900	1055	147
0	1557256	1056	133
0	1558539	1057	110
0	1559935	1058	139
0	1561346	1059	150
0	1562955	1060	153
0	1564407	1061	141
0	1565874	1062	156
0	1567608	1063	171
0	1569270	1064	159
0	1570749	1065	114
0	1571974	1066	124
0	1573175	1067	108
0	1574652	1068	156
0	1576503	1069	180
0	1577912	1070	119
0	1579319	1071	126
0	1581067	1072	159
0	1582521	1073	127
0	1584136	1074	170
0	1585530	1075	129
0	1587013	1076	130
0	1588429	1077	141
0	1589821	1078	139
0	1591177	1079	117
0	1592811	1080	166
0	1594092	1081	134
0	1595496	1082	119
0	1597109	1083	158
0	1598564	1084	132
0	1600051	1085	140
0	1601655	1086	147
0	1603005	1087	127
0	1604463	1088	129
0	1605885	1089	141
0	1607376	1090	123
0	1609017	1091	178
0	1610285	1092	109
0	1611641	1093	129
0	1613313	1094	177
0	1614899	1095	155
0	1616016	1096	116
0	1617539	1097	146
0	1618799	1098	117
0	1620518	1099	158
0	1622161	1100	151
0	1623711	1101	157
0	1625338	1102	142
0	1626952	1103	157
0	1628391	1104	154
0	1629984	1105	170
0	1631469	1106	140
0	1633277	1107	195
0	1634822	1108	134
0	1636234	1109	135
0	1637957	1110	181
0	1639794	1111	182
0	1641407	1112	154
0	1642831	1113	139
0	1644519	1114	163
0	1645839	1115	111
0	1647018	1116	108
0	1648406	1117	135
0	1649719	1118	132
0	1651136	1119	128
0	1653141	1120	179
0	1654633	1121	143
0	1655917	1122	129
0	1657320	1123	124
0	1658710	1124	139
0	1660264	1125	163
0	1661269	1126	94
0	1662660	1127	116
0	1664147	1128	150
0	1665483	1129	121
0	1666995	1130	148
0	1668406	1131	114
0	1670010	1132	149
0	1670929	1133	90
0	1671990	1134	100
0	1673935	1135	218
0	1675567	1136	153
0	1677463	1137	183
0	1679120	1138	176
0	1680412	1139	135
0	1682163	1140	183
0	1683469	1141	131
0	1684988	1142	130
0	1685945	1143	96
0	1687078	1144	104
0	1688397	1145	132
0	1689888	1146	168
0	1691129	1147	118
0	1692378	1148	114
0	1693959	1149	160
0	1695613	1150	174
0	1697144	1151	146
0	1698688	1152	155
0	1699932	1153	111
0	1701327	1154	130
0	1702817	1155	139
0	1704441	1156	165
0	1705690	1157	114
0	1707409	1158	172
0	1708923	1159	147
0	1710246	1160	125
0	1711710	1161	147
0	1713195	1162	134
0	1715008	1163	176
0	1716291	1164	114
0	1717942	1165	170
0	1719658	1166	149
0	1720942	1167	139
0	1722376	1168	129
0	1723849	1169	144
0	1725320	1170	133
0	1726745	1171	140
0	1728295	1172	155
0	1729821	1173	139
0	1731682	1174	196
0	1733249	1175	136
0	1734677	1176	135
0	1736149	1177	149
0	1737424	1178	110
0	1738924	1179	137
0	1740131	1180	109
0	1741393	1181	131
0	1742867	1182	133
0	1744138	1183	124
0	1745234	1184	83
0	1746481	1185	110
0	1747945	1186	163
0	1749238	1187	112
0	1750751	1188	140
0	1752261	1189	147
0	1753739	1190	134
0	1755264	1191	164
0	1756673	1192	128
0	1758238	1193	164
0	1759871	1194	152
0	1761493	1195	157
0	1763371	1196	177
0	1764896	1197	140
0	1766223	1198	136
0	1767931	1199	157
0	1769614	1200	149
0	1771043	1201	114
0	1772326	1202	118
0	1773587	1203	116
0	1774797	1204	121
0	1776396	1205	160
0	1777656	1206	127
0	1779415	1207	178
0	1780586	1208	116
0	1781996	1209	119
0	1783339	1210	117
0	1784742	1211	150
0	1786168	1212	143
0	1787679	1213	146
0	1789355	1214	159
0	1791012	1215	150
0	1792263	1216	130
0	1793676	1217	134
0	1795138	1218	145
0	1796509	1219	126
0	1798012	1220	157
0	1799407	1221	144
0	1800834	1222	132
0	1802107	1223	138
0	1803443	1224	129
0	1804989	1225	151
0	1806674	1226	158
0	1807859	1227	112
0	1809455	1228	161
0	1810831	1229	117
0	1812578	1230	161
0	1813824	1231	107
0	1815267	1232	130
0	1816540	1233	126
0	1817941	1234	130
0	1819456	1235	156
0	1820988	1236	155
0	1822122	1237	107
0	1823387	1238	108
0	1824632	1239	114
0	1825810	1240	104
0	1827361	1241	146
0	1828798	1242	150
0	1830221	1243	118
0	1831668	1244	142
0	1833296	1245	145
0	1834524	1246	105
0	1835801	1247	116
0	1837286	1248	130
0	1838699	1249	140
0	1840005	1250	140
0	1841241	1251	135
0	1842638	1252	140
0	1843991	1253	104
0	1845603	1254	169
0	1846968	1255	124
0	1848216	1256	123
0	1849587	1257	148
0	1850724	1258	110
0	1852232	1259	143
0	1853655	1260	121
0	1854742	1261	102
0	1855985	1262	114
0	1857155	1263	127
0	1858536	1264	118
0	1859999	1265	132
0	1861638	1266	150
0	1863367	1267	184
0	1864879	1268	143
0	1866086	1269	104
0	1867230	1270	124
0	1868474	1271	129
0	1869936	1272	131
0	1871412	1273	133
0	1873209	1274	180
0	1874704	1275	132
0	1876188	1276	127
0	1877999	1277	182
0	1879649	1278	147
0	1881044	1279	146
0	1882631	1280	157
0	1884187	1281	163
0	1885880	1282	178
0	1887288	1283	145
0	1888878	1284	147
0	1890881	1285	204
0	1892543	1286	167
0	1894023	1287	143
0	1895440	1288	136
0	1896646	1289	111
0	1897922	1290	122
0	1899458	1291	149
0	1900864	1292	123
0	1902524	1293	165
0	1904047	1294	158
0	1905494	1295	128
0	1907008	1296	147
0	1908541	1297	138
0	1909912	1298	132
0	1911081	1299	100
0	1912438	1300	149
0	1913593	1301	120
0	1914935	1302	111
0	1916550	1303	152
0	1917675	1304	102
0	1919073	1305	135
0	1920542	1306	140
0	1922000	1307	143
0	1923379	1308	138
0	1924684	1309	120
0	1925720	1310	100
0	1927077	1311	136
0	1928497	1312	131
0	1929849	1313	109
0	1931344	1314	144
0	1932604	1315	101
0	1934144	1316	131
0	1935550	1317	141
0	1936788	1318	123
0	1938256	1319	141
0	1939737	1320	139
0	1941086	1321	116
0	1942550	1322	129
0	1943860	1323	119
0	1945102	1324	111
0	1946559	1325	140
0	1947830	1326	112
0	1949305	1327	128
0	1950992	1328	158
0	1952345	1329	124
0	1953633	1330	118
0	1955067	1331	137
0	1956480	1332	132
0	1957727	1333	102
0	1958823	1334	87
0	1960488	1335	170
0	1962299	1336	184
0	1963884	1337	170
0	1965346	1338	147
0	1966664	1339	119
0	1968275	1340	165
0	1969667	1341	123
0	1971317	1342	145
0	1973090	1343	174
0	1974561	1344	148
0	1975768	1345	114
0	1977471	1346	186
0	1978889	1347	125
0	1980676	1348	184
0	1981834	1349	119
0	1983247	1350	143
0	1984502	1351	110
0	1986078	1352	155
0	1987577	1353	136
0	1989005	1354	125
0	1990708	1355	166
0	1992010	1356	99
0	1993773	1357	162
0	1994798	1358	96
0	1996256	1359	153
0	1997628	1360	126
0	1999283	1361	178
0	2000827	1362	161
0	2002389	1363	159
0	2003925	1364	159
0	2005481	1365	143
0	2007219	1366	171
0	2008872	1367	160
0	2010490	1368	173
0	2011833	1369	132
0	2013258	1370	129
0	2014451	1371	106
0	2016029	1372	163
0	2017681	1373	157
0	2019180	1374	146
0	2020678	1375	145
0	2021752	1376	85
0	2023281	1377	126
0	2024805	1378	147
0	2026142	1379	128
0	2027492	1380	134
0	2029130	1381	151
0	2030582	1382	135
0	2032080	1383	141
0	2033364	1384	109
0	2034577	1385	120
0	2036407	1386	177
0	2038353	1387	189
0	2039549	1388	115
0	2041077	1389	147
0	2042810	1390	177
0	2044049	1391	122
0	2045462	1392	126
0	2046968	1393	123
0	2048490	1394	151
0	2050082	1395	157
0	2051400	1396	127
0	2052585	1397	112
0	2053970	1398	124
0	2055313	1399	122
0	2056755	1400	136
0	2058678	1401	186
0	2060050	1402	127
0	2061724	1403	165
0	2063116	1404	135
0	2064341	1405	104
0	2066015	1406	169
0	2067137	1407	97
0	2068536	1408	128
0	2069938	1409	145
0	2071447	1410	151
0	2072732	1411	112
0	2074000	1412	123
0	2075752	1413	183
0	2077078	1414	115
0	2078789	1415	156
0	2080407	1416	173
0	2081794	1417	124
0	2083309	1418	152
0	2084919	1419	163
0	2086199	1420	132
0	2087606	1421	134
0	2088694	1422	109
0	2089771	1423	88
0	2091004	1424	110
0	2092227	1425	104
0	2093705	1426	143
0	2095141	1427	141
0	2096386	1428	120
0	2097953	1429	152
0	2099469	1430	154
0	2100646	1431	116
0	2101953	1432	126
0	2103705	1433	167
0	2105140	1434	124
0	2106554	1435	127
0	2107884	1436	121
0	2109622	1437	177
0	2110896	1438	111
0	2112338	1439	123
0	2114108	1440	158
0	2115555	1441	142
0	2117208	1442	172
0	2118855	1443	170
0	2120226	1444	122
0	2121722	1445	143
0	2123224	1446	141
0	2124655	1447	136
0	2125921	1448	103
0	2127381	1449	131
0	2128708	1450	121
0	2130240	1451	165
0	2131770	1452	135
0	2133085	1453	126
0	2134519	1454	135
0	2136172	1455	164
0	2137653	1456	160
0	2138989	1457	115
0	2140535	1458	161
0	2142585	1459	207
0	2144022	1460	127
0	2145780	1461	171
0	2147096	1462	137
0	2148290	1463	113
0	2150028	1464	181
0	2151798	1465	161
0	2153417	1466	160
0	2155014	1467	154
0	2156617	1468	142
0	2157781	1469	123
0	2158977	1470	124
0	2160154	1471	112
0	2161531	1472	120
0	2163034	1473	140
0	2164299	1474	124
0	2165765	1475	139
0	2167092	1476	112
0	2168624	1477	155
0	2170050	1478	145
0	2171829	1479	184
0	2173178	1480	125
0	2174350	1481	109
0	2175750	1482	151
0	2177219	1483	146
0	2178440	1484	110
0	2179928	1485	145
0	2181423	1486	140
0	2182713	1487	123
0	2183948	1488	130
0	2185621	1489	164
0	2186724	1490	105
0	2188112	1491	133
0	2189568	1492	155
0	2190925	1493	126
0	2192030	1494	90
0	2193358	1495	111
0	2194828	1496	147
0	2195880	1497	101
0	2197314	1498	129
0	2198621	1499	118
0	2200127	1500	148
0	2201708	1501	148
0	2203388	1502	145
0	2205302	1503	189
0	2206654	1504	135
0	2207911	1505	110
0	2209465	1506	157
0	2210753	1507	125
0	2212305	1508	157
0	2213842	1509	150
0	2215283	1510	125
0	2216846	1511	152
0	2218005	1512	108
0	2219328	1513	108
0	2220828	1514	135
0	2222177	1515	126
0	2223786	1516	142
0	2225465	1517	162
0	2227328	1518	202
0	2228806	1519	145
0	2230499	1520	169
0	2232008	1521	154
0	2233582	1522	153
0	2235457	1523	196
0	2236970	1524	152
0	2238238	1525	119
0	2239463	1526	104
0	2241048	1527	152
0	2242459	1528	134
0	2243708	1529	110
0	2245280	1530	154
0	2247023	1531	162
0	2248555	1532	149
0	2250093	1533	159
0	2251475	1534	121
0	2252700	1535	126
0	2254326	1536	147
0	2255609	1537	102
0	2257182	1538	156
0	2258603	1539	152
0	2260182	1540	129
0	2261630	1541	115
0	2263107	1542	126
0	2264441	1543	123
0	2265772	1544	122
0	2267137	1545	134
0	2268761	1546	141
0	2270386	1547	142
0	2271662	1548	129
0	2273312	1549	151
0	2274709	1550	131
0	2276355	1551	159
0	2277869	1552	151
0	2279215	1553	123
0	2281008	1554	164
0	2282947	1555	202
0	2284534	1556	166
0	2286012	1557	151
0	2287404	1558	129
0	2288766	1559	133
0	2290167	1560	125
0	2291954	1561	186
0	2293490	1562	153
0	2294820	1563	123
0	2296350	1564	137
0	2297732	1565	107
0	2299223	1566	148
0	2300641	1567	123
0	2301964	1568	126
0	2303464	1569	141
0	2304557	1570	93
0	2306034	1571	128
0	2307780	1572	163
0	2309403	1573	128
0	2311077	1574	175
0	2312621	1575	145
0	2314024	1576	114
0	2315563	1577	134
0	2317166	1578	150
0	2318435	1579	102
0	2319893	1580	132
0	2321384	1581	142
0	2322946	1582	137
0	2324844	1583	191
0	2326509	1584	154
0	2328002	1585	142
0	2329571	1586	154
0	2331146	1587	160
0	2332604	1588	137
0	2333964	1589	111
0	2335468	1590	142
0	2337094	1591	163
0	2338577	1592	148
0	2339912	1593	132
0	2341361	1594	152
0	2342892	1595	140
0	2344705	1596	166
0	2345815	1597	107
0	2347165	1598	139
0	2348350	1599	124
0	2349644	1600	118
0	2351162	1601	147
0	2352943	1602	174
0	2354640	1603	170
0	2356174	1604	139
0	2357825	1605	160
0	2359458	1606	160
0	2361042	1607	129
0	2362721	1608	168
0	2364346	1609	158
0	2365737	1610	123
0	2367398	1611	164
0	2369370	1612	185
0	2370625	1613	110