version 3
run SimulationTime-88-20240107-16:16:02-1824
attr configname SimulationTime
attr datetime 20240107-16:16:02
attr datetimef 20240107-161602
attr experiment SimulationTime
attr inifile omnetpp.ini
attr iterationvars ""
attr iterationvarsd ""
attr iterationvarsf ""
attr measurement ""
attr network System
attr processid 1824
attr repetition 88
attr replication #88
attr resultdir results
attr runnumber 88
attr seedset 88
config **.cpu.rate 1000
config **.hd.rateProcessing 250
config **.webServer.web_server_rate 100
config **.p1 0.35
config **.p2 0.40
config network System
config num-rngs 4
config **.cpu.rng-0 0
config **.cpu.rng-1 1
config **.hd.rng-0 2
config **.webServer.rng-0 3
config repeat 500
config seed-set 88
config sim-time-limit 10000s
config **.client.numClients 40

vector 0 System.server.cpu requestCounterStat:vector ETV
attr recordingmode vector
attr source requestCounter
vector 1 System.server.hd utilizationHdStat:vector ETV
attr recordingmode vector
attr source utilizationHd
vector 2 System.server.cpu utilizationCpuStat:vector ETV
attr recordingmode vector
attr source utilizationCpu
vector 3 System.webServer utilizationWsStat:vector ETV
attr recordingmode vector
attr source utilizationWs
0	2041	1	210
0	3800	2	168
0	5243	3	138
0	6850	4	172
0	8344	5	137
0	9794	6	131
0	11191	7	130
0	12701	8	153
0	14193	9	139
0	15767	10	164
0	17151	11	129
0	18579	12	129
0	19836	13	108
0	21293	14	156
0	22743	15	147
0	23937	16	127
0	25095	17	109
0	26600	18	150
0	28539	19	192
0	30029	20	144
0	31596	21	162
0	32917	22	130
0	34527	23	171
0	36236	24	170
0	37404	25	121
0	38716	26	133
0	40081	27	132
0	41508	28	140
0	43093	29	138
0	44554	30	139
0	46022	31	151
0	47565	32	138
0	49264	33	160
0	50548	34	117
0	52175	35	158
0	53410	36	106
0	54883	37	152
0	56088	38	120
0	57306	39	123
0	59018	40	158
0	60503	41	132
0	61879	42	123
0	63075	43	113
0	64753	44	155
0	66281	45	143
0	67877	46	167
0	69160	47	138
0	70825	48	164
0	72326	49	140
0	73929	50	175
0	75105	51	125
0	76367	52	115
0	77867	53	143
0	79246	54	132
0	80690	55	133
0	82522	56	189
0	83676	57	119
0	85370	58	161
0	86897	59	142
0	88252	60	137
0	89832	61	141
0	91338	62	139
0	92729	63	146
0	94640	64	194
0	96004	65	121
0	97576	66	165
0	98988	67	137
0	100443	68	132
0	101545	69	109
0	103283	70	160
0	104513	71	105
0	106282	72	190
0	107623	73	132
0	108887	74	111
0	110483	75	163
0	112102	76	164
0	113312	77	129
0	115174	78	197
0	116729	79	150
0	118357	80	160
0	119808	81	142
0	121041	82	112
0	122419	83	129
0	123814	84	120
0	125659	85	192
0	127277	86	171
0	128851	87	131
0	130161	88	123
0	131778	89	146
0	133128	90	124
0	134894	91	171
0	136460	92	163
0	138087	93	164
0	139605	94	153
0	141016	95	142
0	142576	96	157
0	144201	97	152
0	145617	98	117
0	146890	99	116
0	148333	100	113
0	149825	101	121
0	151297	102	149
0	152716	103	132
0	154070	104	125
0	155461	105	120
0	156719	106	109
0	158194	107	138
0	159601	108	130
0	160742	109	116
0	161976	110	108
0	163716	111	187
0	165257	112	140
0	166793	113	157
0	168161	114	133
0	169297	115	107
0	170684	116	128
0	172287	117	162
0	173763	118	145
0	175416	119	166
0	176722	120	122
0	178271	121	150
0	179907	122	169
0	181581	123	149
0	183084	124	156
0	184588	125	147
0	186037	126	146
0	187418	127	128
0	188881	128	138
0	190237	129	133
0	191688	130	149
0	192994	131	107
0	194450	132	137
0	195972	133	157
0	197236	134	111
0	198921	135	174
0	200317	136	111
0	201463	137	95
0	202915	138	145
0	204573	139	167
0	205986	140	141
0	207465	141	136
0	208943	142	153
0	210524	143	146
0	211920	144	143
0	213197	145	108
0	214728	146	140
0	216003	147	138
0	217464	148	136
0	219073	149	152
0	220739	150	162
0	222283	151	129
0	223954	152	170
0	225412	153	139
0	226907	154	134
0	228296	155	130
0	229864	156	137
0	231107	157	116
0	232689	158	159
0	234072	159	146
0	235818	160	162
0	237190	161	141
0	238460	162	113
0	240218	163	173
0	241737	164	142
0	243232	165	154
0	244482	166	127
0	245881	167	150
0	247418	168	154
0	248558	169	103
0	249850	170	112
0	251301	171	134
0	252561	172	99
0	253984	173	124
0	255319	174	138
0	256935	175	149
0	258232	176	124
0	259675	177	146
0	260974	178	132
0	262186	179	111
0	263588	180	128
0	265309	181	184
0	266583	182	129
0	268062	183	148
0	269499	184	138
0	270833	185	145
0	272616	186	188
0	274070	187	149
0	275600	188	141
0	276922	189	119
0	278432	190	174
0	280142	191	175
0	281453	192	130
0	283013	193	167
0	284415	194	137
0	286271	195	179
0	287647	196	133
0	289093	197	145
0	290516	198	116
0	291978	199	137
0	293508	200	138
0	295161	201	176
0	296739	202	163
0	298120	203	142
0	299604	204	145
0	300901	205	122
0	302264	206	142
0	303650	207	127
0	305346	208	149
0	307261	209	210
0	308849	210	160
0	310373	211	161
0	311913	212	159
0	313360	213	148
0	314834	214	127
0	316238	215	131
0	317840	216	149
0	319134	217	127
0	320641	218	144
0	322038	219	118
0	323450	220	132
0	324908	221	141
0	326326	222	149
0	327633	223	106
0	329161	224	133
0	330572	225	138
0	332064	226	141
0	333765	227	164
0	335065	228	115
0	336539	229	145
0	337965	230	142
0	339538	231	146
0	340801	232	104
0	342083	233	127
0	343540	234	130
0	344670	235	105
0	346196	236	125
0	347695	237	128
0	349511	238	185
0	350959	239	149
0	352166	240	121
0	353852	241	151
0	355138	242	127
0	356500	243	129
0	358309	244	162
0	359682	245	132
0	361243	246	148
0	363141	247	209
0	364611	248	125
0	365789	249	105
0	367103	250	130
0	368401	251	113
0	369842	252	144
0	371393	253	150
0	372965	254	153
0	374332	255	146
0	375983	256	150
0	377442	257	144
0	378954	258	139
0	380323	259	128
0	381661	260	126
0	383143	261	129
0	384658	262	142
0	386052	263	121
0	387647	264	146
0	388731	265	105
0	390105	266	117
0	391767	267	167
0	393170	268	132
0	394535	269	118
0	395593	270	100
0	396988	271	132
0	398400	272	153
0	399784	273	137
0	401114	274	117
0	402551	275	164
0	404006	276	126
0	405403	277	112
0	406599	278	89
0	408139	279	129
0	409540	280	131
0	411008	281	147
0	412558	282	149
0	413812	283	107
0	415408	284	153
0	417000	285	157
0	418203	286	106
0	419565	287	129
0	420951	288	133
0	422271	289	117
0	423613	290	124
0	425221	291	159
0	426628	292	138
0	428163	293	150
0	429747	294	141
0	430890	295	110
0	432596	296	135
0	434255	297	182
0	435679	298	145
0	437176	299	150
0	438690	300	136
0	439960	301	123
0	441344	302	113
0	442822	303	139
0	444403	304	164
0	445833	305	119
0	447232	306	132
0	448725	307	160
0	449830	308	98
0	451324	309	157
0	452869	310	157
0	454037	311	97
0	455359	312	125
0	456737	313	123
0	458099	314	131
0	459904	315	190
0	461165	316	142
0	462586	317	134
0	464089	318	136
0	465713	319	167
0	466986	320	123
0	468543	321	176
0	469882	322	126
0	471213	323	146
0	472486	324	122
0	473699	325	96
0	475119	326	151
0	476539	327	121
0	478281	328	167
0	479638	329	148
0	481073	330	137
0	482278	331	126
0	483572	332	113
0	484871	333	126
0	486863	334	219
0	488510	335	168
0	490261	336	200
0	491894	337	158
0	493638	338	177
0	495198	339	149
0	496878	340	174
0	498515	341	164
0	500055	342	135
0	501627	343	167
0	502928	344	122
0	504287	345	126
0	505725	346	131
0	507362	347	180
0	508584	348	123
0	510023	349	120
0	511168	350	93
0	512314	351	111
0	513797	352	134
0	515249	353	129
0	517127	354	207
0	518664	355	152
0	519885	356	124
0	521013	357	105
0	522568	358	150
0	523840	359	117
0	525157	360	115
0	526709	361	141
0	528370	362	164
0	529598	363	125
0	531194	364	163
0	532791	365	166
0	534309	366	151
0	536000	367	184
0	537586	368	131
0	539026	369	119
0	540341	370	145
0	541630	371	136
0	542839	372	114
0	544513	373	167
0	546293	374	179
0	547712	375	132
0	549222	376	125
0	550512	377	103
0	552212	378	169
0	553344	379	107
0	554841	380	133
0	556185	381	141
0	557551	382	117
0	558786	383	124
0	560179	384	144
0	561720	385	148
0	563485	386	154
0	564731	387	119
0	565923	388	105
0	567187	389	129
0	568433	390	108
0	569767	391	111
0	571399	392	177
0	572942	393	138
0	574370	394	129
0	575952	395	155
0	577330	396	131
0	578399	397	106
0	580187	398	191
0	581755	399	139
0	583177	400	144
0	584623	401	143
0	585732	402	104
0	587168	403	137
0	588693	404	158
0	590468	405	196
0	591954	406	139
0	593584	407	151
0	595284	408	167
0	596511	409	120
0	597786	410	115
0	598872	411	97
0	599993	412	104
0	601457	413	143
0	603162	414	154
0	604448	415	123
0	605926	416	159
0	607100	417	121
0	609004	418	185
0	610603	419	152
0	612262	420	173
0	613854	421	157
0	615397	422	146
0	616738	423	132
0	617989	424	108
0	619261	425	115
0	620343	426	105
0	621744	427	118
0	623004	428	121
0	624372	429	129
0	625613	430	123
0	626748	431	106
0	628148	432	129
0	629468	433	127
0	630856	434	135
0	632316	435	147
0	633804	436	131
0	635108	437	147
0	636619	438	152
0	637956	439	120
0	639404	440	136
0	640820	441	129
0	642311	442	132
0	643875	443	155
0	645128	444	118
0	646444	445	125
0	648110	446	173
0	649695	447	142
0	651187	448	131
0	652565	449	131
0	653773	450	120
0	655038	451	116
0	656249	452	118
0	657804	453	142
0	659424	454	145
0	660834	455	143
0	662411	456	128
0	664220	457	188
0	665678	458	135
0	667092	459	145
0	668704	460	170
0	670217	461	154
0	671791	462	153
0	673327	463	143
0	674720	464	142
0	676034	465	127
0	677617	466	130
0	679285	467	169
0	680828	468	152
0	682261	469	126
0	683751	470	146
0	685141	471	131
0	686788	472	166
0	688144	473	135
0	689448	474	145
0	691047	475	152
0	692524	476	142
0	693607	477	88
0	695212	478	152
0	696826	479	135
0	698367	480	123
0	699969	481	155
0	701411	482	135
0	703064	483	152
0	704395	484	130
0	706192	485	188
0	707589	486	136
0	709176	487	162
0	710467	488	120
0	711706	489	120
0	713455	490	175
0	715018	491	136
0	716770	492	161
0	718478	493	169
0	719902	494	147
0	721048	495	101
0	722439	496	132
0	723920	497	140
0	724986	498	95
0	726189	499	112
0	727583	500	156
0	729077	501	143
0	730590	502	146
0	731826	503	123
0	733436	504	145
0	734791	505	116
0	735939	506	97
0	737180	507	116
0	738467	508	122
0	739962	509	152
0	741382	510	138
0	742816	511	151
0	744466	512	163
0	745970	513	145
0	747488	514	151
0	748804	515	113
0	750148	516	165
0	751479	517	134
0	752971	518	135
0	754599	519	141
0	756194	520	153
0	757506	521	125
0	759074	522	173
0	760350	523	123
0	761851	524	148
0	763443	525	141
0	765173	526	169
0	766701	527	151
0	768272	528	130
0	770125	529	162
0	771559	530	124
0	773382	531	190
0	774896	532	157
0	776374	533	141
0	777974	534	155
0	779708	535	175
0	781160	536	137
0	782604	537	131
0	784147	538	154
0	785519	539	143
0	786812	540	133
0	788706	541	183
0	789901	542	116
0	791291	543	135
0	792801	544	129
0	794378	545	148
0	795796	546	141
0	797483	547	156
0	799202	548	170
0	800630	549	131
0	802012	550	148
0	803542	551	133
0	804932	552	119
0	806561	553	146
0	808131	554	153
0	809869	555	175
0	811330	556	142
0	813275	557	186
0	814979	558	193
0	816536	559	136
0	817992	560	150
0	819409	561	140
0	820800	562	134
0	822354	563	149
0	823909	564	150
0	825425	565	149
0	826535	566	101
0	827947	567	145
0	829445	568	149
0	830930	569	136
0	832287	570	157
0	833620	571	128
0	834897	572	128
0	836136	573	122
0	837579	574	134
0	839203	575	157
0	840942	576	172
0	842516	577	177
0	843938	578	133
0	845498	579	161
0	846855	580	111
0	848244	581	142
0	849986	582	165
0	851756	583	161
0	852961	584	124
0	854456	585	146
0	855755	586	126
0	857068	587	128
0	858605	588	136
0	860256	589	156
0	861691	590	127
0	862953	591	109
0	864453	592	141
0	865803	593	133
0	867428	594	156
0	869182	595	155
0	870325	596	108
0	871579	597	117
0	873148	598	146
0	874455	599	132
0	875728	600	119
0	877041	601	132
0	878548	602	138
0	879863	603	124
0	881314	604	142
0	882728	605	149
0	883806	606	107
0	885397	607	154
0	887130	608	168
0	888459	609	116
0	889689	610	126
0	890817	611	101
0	892128	612	122
0	893396	613	115
0	895413	614	198
0	896792	615	142
0	898343	616	130
0	900213	617	191
0	902103	618	195
0	903367	619	113
0	904877	620	138
0	906370	621	154
0	908031	622	166
0	909402	623	114
0	910908	624	151
0	912221	625	134
0	913819	626	151
0	915140	627	134
0	916286	628	99
0	917862	629	145
0	919419	630	165
0	920775	631	123
0	922222	632	126
0	923581	633	138
0	924914	634	124
0	926189	635	122
0	927919	636	161
0	929557	637	157
0	930879	638	115
0	932479	639	165
0	933924	640	141
0	935559	641	180
0	936810	642	124
0	938403	643	150
0	939709	644	127
0	941035	645	129
0	942180	646	106
0	943700	647	145
0	945208	648	131
0	946479	649	136
0	948160	650	155
0	949942	651	183
0	951252	652	135
0	952525	653	120
0	953970	654	160
0	955691	655	168
0	957732	656	208
0	959533	657	192
0	960799	658	111
0	962089	659	125
0	963387	660	118
0	964609	661	107
0	966328	662	196
0	967819	663	142
0	969185	664	131
0	970439	665	123
0	972039	666	157
0	973518	667	130
0	974870	668	131
0	976440	669	167
0	977728	670	126
0	978884	671	123
0	980038	672	97
0	981233	673	110
0	983002	674	162
0	984797	675	182
0	986358	676	136
0	987718	677	139
0	989382	678	157
0	990554	679	105
0	991854	680	114
0	993152	681	113
0	994555	682	140
0	996170	683	158
0	997270	684	95
0	998473	685	112
0	999985	686	167
0	1001064	687	108
0	1002366	688	125
0	1004217	689	194
0	1005880	690	167
0	1007558	691	153
0	1009108	692	145
0	1010318	693	109
0	1011781	694	134
0	1013150	695	120
0	1015171	696	196
0	1016628	697	142
0	1018151	698	152
0	1019590	699	154
0	1020817	700	121
0	1022453	701	145
0	1023862	702	134
0	1025457	703	162
0	1026603	704	109
0	1027998	705	116
0	1029552	706	155
0	1030861	707	118
0	1032471	708	157
0	1034259	709	171
0	1035639	710	134
0	1037243	711	175
0	1038489	712	115
0	1039912	713	136
0	1041250	714	125
0	1042445	715	120
0	1044059	716	161
0	1045571	717	141
0	1046934	718	138
0	1048211	719	128
0	1049621	720	136
0	1051077	721	131
0	1052544	722	132
0	1053974	723	139
0	1055202	724	111
0	1057006	725	161
0	1058531	726	150
0	1060336	727	158
0	1061876	728	157
0	1063777	729	186
0	1065112	730	127
0	1066427	731	122
0	1067672	732	128
0	1068980	733	113
0	1070862	734	181
0	1072466	735	149
0	1073883	736	142
0	1075347	737	141
0	1077061	738	175
0	1078841	739	185
0	1080385	740	152
0	1081659	741	115
0	1083245	742	171
0	1084409	743	101
0	1085785	744	147
0	1087487	745	169
0	1089026	746	146
0	1090570	747	125
0	1091945	748	130
0	1093501	749	151
0	1095147	750	144
0	1096461	751	115
0	1097658	752	110
0	1099141	753	140
0	1100278	754	112
0	1101728	755	131
0	1103405	756	160
0	1104796	757	130
0	1106221	758	116
0	1107430	759	108
0	1108996	760	154
0	1110553	761	164
0	1112292	762	174
0	1113703	763	138
0	1115201	764	143
0	1116573	765	133
0	1118300	766	176
0	1120089	767	182
0	1121663	768	151
0	1123035	769	119
0	1124645	770	180
0	1126024	771	128
0	1127463	772	144
0	1128658	773	106
0	1130264	774	167
0	1132095	775	184
0	1133754	776	150
0	1134955	777	126
0	1136586	778	158
0	1138392	779	157
0	1139988	780	148
0	1141707	781	182
0	1142998	782	124
0	1144273	783	114
0	1145464	784	120
0	1146880	785	141
0	1148226	786	125
0	1149407	787	126
0	1150590	788	96
0	1152224	789	151
0	1153658	790	140
0	1154767	791	90
0	1156404	792	182
0	1157827	793	144
0	1159404	794	160
0	1160762	795	119
0	1162099	796	132
0	1163473	797	123
0	1164972	798	126
0	1166363	799	148
0	1167711	800	118
0	1169177	801	157
0	1170668	802	148
0	1172234	803	179
0	1173796	804	151
0	1175445	805	172
0	1176657	806	105
0	1178088	807	132
0	1179181	808	94
0	1180629	809	127
0	1181701	810	92
0	1183278	811	170
0	1184497	812	128
0	1185720	813	124
0	1187058	814	145
0	1188790	815	181
0	1190333	816	148
0	1191897	817	145
0	1193438	818	158
0	1195045	819	144
0	1196660	820	149
0	1198200	821	145
0	1199509	822	132
0	1200842	823	124
0	1202170	824	125
0	1203674	825	135
0	1205156	826	153
0	1206610	827	143
0	1207834	828	93
0	1209416	829	141
0	1210772	830	130
0	1212132	831	139
0	1213854	832	169
0	1215145	833	118
0	1216612	834	152
0	1217931	835	132
0	1219597	836	165
0	1220905	837	111
0	1222522	838	144
0	1223948	839	143
0	1225445	840	131
0	1226889	841	151
0	1228720	842	188
0	1230146	843	147
0	1231374	844	127
0	1232791	845	130
0	1234160	846	130
0	1235345	847	120
0	1236743	848	129
0	1238109	849	139
0	1239681	850	156
0	1241258	851	140
0	1242582	852	141
0	1244206	853	145
0	1245367	854	110
0	1246808	855	138
0	1248455	856	162
0	1249699	857	127
0	1251329	858	165
0	1252671	859	133
0	1253912	860	133
0	1255129	861	96
0	1256897	862	181
0	1258293	863	125
0	1259896	864	146
0	1261289	865	134
0	1262829	866	149
0	1264178	867	134
0	1265491	868	140
0	1266887	869	137
0	1268417	870	158
0	1270054	871	158
0	1271876	872	181
0	1273538	873	159
0	1274888	874	115
0	1276246	875	147
0	1277612	876	127
0	1279276	877	173
0	1280637	878	116
0	1282292	879	182
0	1283752	880	140
0	1285089	881	120
0	1286837	882	161
0	1288401	883	157
0	1290007	884	153
0	1291559	885	135
0	1292897	886	119
0	1294524	887	150
0	1296270	888	185
0	1297572	889	113
0	1299424	890	190
0	1301088	891	163
0	1302783	892	170
0	1304165	893	135
0	1305628	894	142
0	1307057	895	134
0	1308407	896	129
0	1309994	897	142
0	1311295	898	108
0	1312594	899	122
0	1314281	900	179
0	1315797	901	145
0	1316956	902	94
0	1318620	903	175
0	1320173	904	156
0	1321572	905	126
0	1322861	906	112
0	1324312	907	154
0	1325723	908	146
0	1327203	909	155
0	1328857	910	156
0	1330391	911	143
0	1331721	912	115
0	1333050	913	128
0	1334481	914	152
0	1335792	915	124
0	1336559	916	70
0	1338119	917	153
0	1339688	918	148
0	1340918	919	95
0	1342167	920	115
0	1343253	921	123
0	1344523	922	115
0	1345729	923	91
0	1346837	924	109
0	1348303	925	123
0	1349906	926	150
0	1351357	927	138
0	1352805	928	141
0	1354501	929	177
0	1356086	930	159
0	1357242	931	97
0	1358583	932	140
0	1359947	933	123
0	1361346	934	136
0	1362564	935	125
0	1363876	936	111
0	1365414	937	139
0	1366938	938	139
0	1368341	939	132
0	1370172	940	173
0	1371826	941	159
0	1373714	942	185
0	1374903	943	112
0	1376484	944	172
0	1377929	945	140
0	1379123	946	119
0	1380782	947	164
0	1382225	948	128
0	1383305	949	117
0	1384315	950	98
0	1385438	951	98
0	1387018	952	159
0	1388424	953	137
0	1389792	954	133
0	1391338	955	147
0	1392721	956	118
0	1394525	957	185
0	1396110	958	144
0	1397665	959	166
0	1399049	960	124
0	1400246	961	102
0	1401950	962	159
0	1403297	963	142
0	1404733	964	121
0	1406382	965	160
0	1407475	966	104
0	1409022	967	146
0	1410946	968	185
0	1412349	969	148
0	1413670	970	131
0	1414956	971	127
0	1416429	972	138
0	1417632	973	118
0	1419018	974	133
0	1420280	975	117
0	1421725	976	132
0	1423143	977	135
0	1424562	978	126
0	1425758	979	113
0	1426984	980	118
0	1428440	981	145
0	1430099	982	142
0	1431821	983	169
0	1433437	984	171
0	1434794	985	130
0	1436029	986	116
0	1437403	987	131
0	1439087	988	169
0	1440439	989	123
0	1441696	990	117
0	1443176	991	141
0	1444852	992	175
0	1446354	993	145
0	1448202	994	173
0	1449639	995	146
0	1451088	996	158
0	1452573	997	152
0	1454123	998	151
0	1455400	999	116
0	1456694	1000	116
0	1458223	1001	150
0	1459784	1002	152
0	1461217	1003	146
0	1462534	1004	126
0	1464218	1005	187
0	1465834	1006	167
0	1467350	1007	141
0	1468963	1008	148
0	1470491	1009	157
0	1471562	1010	99
0	1472988	1011	115
0	1474478	1012	155
0	1475894	1013	133
0	1477267	1014	142
0	1478889	1015	157
0	1480231	1016	123
0	1481774	1017	142
0	1483451	1018	166
0	1484868	1019	132
0	1486309	1020	143
0	1487575	1021	119
0	1489022	1022	140
0	1490450	1023	155
0	1491791	1024	110
0	1493265	1025	125
0	1494731	1026	141
0	1496242	1027	136
0	1497649	1028	134
0	1498873	1029	125
0	1500209	1030	136
0	1501611	1031	155
0	1502917	1032	115
0	1504375	1033	135
0	1505751	1034	141
0	1507039	1035	105
0	1508403	1036	131
0	1509787	1037	139
0	1511669	1038	191
0	1513317	1039	161
0	1514377	1040	80
0	1516012	1041	150
0	1517610	1042	151
0	1519222	1043	161
0	1520494	1044	115
0	1521598	1045	115
0	1523180	1046	151
0	1524397	1047	126
0	1525708	1048	128
0	1526983	1049	118
0	1528596	1050	159
0	1530104	1051	155
0	1531398	1052	129
0	1533000	1053	153
0	1534572	1054	137
0	1536145	1055	148
0	1537923	1056	187
0	1539494	1057	136
0	1541077	1058	154
0	1542660	1059	156
0	1543964	1060	118
0	1545155	1061	118
0	1546569	1062	125
0	1548062	1063	148
0	1549645	1064	164
0	1551474	1065	194
0	1552864	1066	143
0	1554516	1067	153
0	1555944	1068	137
0	1557437	1069	118
0	1558782	1070	139
0	1560190	1071	133
0	1561660	1072	125
0	1563250	1073	153
0	1564768	1074	151
0	1566139	1075	126
0	1567520	1076	124
0	1568993	1077	156
0	1570558	1078	148
0	1572011	1079	128
0	1573471	1080	144
0	1575333	1081	165
0	1576492	1082	112
0	1577932	1083	137
0	1579148	1084	133
0	1580590	1085	145
0	1581606	1086	91
0	1582750	1087	101
0	1584507	1088	186
0	1585638	1089	108
0	1586944	1090	110
0	1588544	1091	149
0	1590060	1092	145
0	1591699	1093	156
0	1593482	1094	184
0	1595250	1095	171
0	1596649	1096	140
0	1598225	1097	149
0	1599558	1098	128
0	1601029	1099	136
0	1602708	1100	159
0	1603797	1101	102
0	1605248	1102	134
0	1606798	1103	153
0	1608235	1104	132
0	1609772	1105	144
0	1611346	1106	127
0	1612957	1107	142
0	1614673	1108	169
0	1615922	1109	126
0	1617728	1110	176
0	1619106	1111	147
0	1620566	1112	145
0	1622184	1113	155
0	1623506	1114	115
0	1624894	1115	141
0	1626006	1116	89
0	1627295	1117	136
0	1628846	1118	152
0	1630505	1119	148
0	1631849	1120	130
0	1633409	1121	147
0	1634673	1122	117
0	1636289	1123	153
0	1637847	1124	151
0	1639310	1125	150
0	1641120	1126	189
0	1642579	1127	144
0	1643898	1128	126
0	1645566	1129	153
0	1646915	1130	127
0	1648053	1131	107
0	1649822	1132	180
0	1651124	1133	131
0	1652448	1134	137
0	1653848	1135	153
0	1655503	1136	172
0	1657083	1137	165
0	1658923	1138	185
0	1660397	1139	137
0	1661822	1140	127
0	1663611	1141	190
0	1665050	1142	144
0	1666611	1143	144
0	1668357	1144	179
0	1669894	1145	156
0	1671740	1146	183
0	1673348	1147	159
0	1674689	1148	114
0	1676472	1149	174
0	1677895	1150	133
0	1679387	1151	141
0	1680898	1152	156
0	1682368	1153	133
0	1684202	1154	183
0	1685647	1155	128
0	1687161	1156	135
0	1688389	1157	117
0	1689725	1158	121
0	1690977	1159	103
0	1692298	1160	137
0	1693949	1161	172
0	1695562	1162	154
0	1697252	1163	179
0	1698623	1164	128
0	1700340	1165	170
0	1701740	1166	119
0	1703127	1167	132
0	1704122	1168	96
0	1706095	1169	206
0	1707456	1170	139
0	1708736	1171	113
0	1710283	1172	134
0	1711723	1173	131
0	1712996	1174	134
0	1714262	1175	129
0	1715822	1176	149
0	1717237	1177	118
0	1718703	1178	141
0	1720149	1179	137
0	1721409	1180	110
0	1722691	1181	139
0	1724083	1182	137
0	1725500	1183	136
0	1726896	1184	101
0	1728325	1185	140
0	1730104	1186	182
0	1731496	1187	133
0	1732867	1188	146
0	1734155	1189	133
0	1735723	1190	174
0	1737345	1191	185
0	1738570	1192	108
0	1740053	1193	154
0	1741465	1194	131
0	1742872	1195	136
0	1744365	1196	148
0	1745883	1197	143
0	1747394	1198	146
0	1748981	1199	150
0	1750340	1200	121
0	1751714	1201	125
0	1753372	1202	185
0	1754861	1203	144
0	1756583	1204	187
0	1757968	1205	148
0	1759597	1206	168
0	1761066	1207	148
0	1762213	1208	106
0	1763524	1209	128
0	1764928	1210	122
0	1766395	1211	160
0	1767958	1212	146
0	1769305	1213	128
0	1770625	1214	113
0	1772178	1215	152
0	1773850	1216	155
0	1775424	1217	149
0	1776928	1218	175
0	1778490	1219	149
0	1780274	1220	172
0	1781898	1221	141
0	1783318	1222	131
0	1784711	1223	144
0	1786233	1224	149
0	1787667	1225	135
0	1789268	1226	172
0	1790806	1227	139
0	1791905	1228	118
0	1793264	1229	138
0	1794566	1230	126
0	1795842	1231	109
0	1797398	1232	153
0	1798741	1233	122
0	1800172	1234	150
0	1801263	1235	116
0	1802582	1236	128
0	1804340	1237	171
0	1805553	1238	108
0	1807245	1239	173
0	1808584	1240	115
0	1810160	1241	147
0	1811841	1242	164
0	1813159	1243	133
0	1814367	1244	123
0	1815984	1245	152
0	1817509	1246	144
0	1819083	1247	153
0	1820602	1248	136
0	1822260	1249	157
0	1823796	1250	144
0	1825381	1251	158
0	1826471	1252	99
0	1827959	1253	129
0	1829420	1254	158
0	1830842	1255	131
0	1832413	1256	136
0	1833954	1257	150
0	1835462	1258	155
0	1836778	1259	127
0	1838083	1260	127
0	1839406	1261	118
0	1840763	1262	118
0	1841989	1263	111
0	1843431	1264	121
0	1844750	1265	120
0	1846399	1266	168
0	1848007	1267	181
0	1849458	1268	130
0	1851174	1269	185
0	1852646	1270	134
0	1853963	1271	124
0	1855234	1272	124
0	1856551	1273	122
0	1858007	1274	115
0	1859415	1275	125
0	1860694	1276	138
0	1862245	1277	154
0	1863922	1278	184
0	1865272	1279	135
0	1866877	1280	151
0	1868242	1281	132
0	1869746	1282	149
0	1871215	1283	144
0	1872469	1284	111
0	1874027	1285	153
0	1875608	1286	166
0	1876888	1287	125
0	1878114	1288	123
0	1879467	1289	128
0	1881134	1290	165
0	1882778	1291	161
0	1883983	1292	118
0	1885175	1293	119
0	1886941	1294	179
0	1888448	1295	150
0	1889976	1296	149
0	1891627	1297	160
0	1892981	1298	131
0	1894636	1299	160
0	1895783	1300	105
0	1897102	1301	140
0	1898086	1302	95
0	1899650	1303	155
0	1901251	1304	168
0	1902719	1305	147
0	1904394	1306	150
0	1905758	1307	145
0	1907433	1308	158
0	1909084	1309	140
0	1910579	1310	137
0	1912155	1311	141
0	1914062	1312	194
0	1915672	1313	155
0	1917341	1314	170
0	1918894	1315	146
0	1920740	1316	165
0	1921804	1317	97
0	1923429	1318	166
0	1924684	1319	130
0	1925951	1320	115
0	1927251	1321	117
0	1928825	1322	147
0	1930202	1323	128
0	1931497	1324	122
0	1932570	1325	84
0	1933964	1326	115
0	1935237	1327	100
0	1936710	1328	144
0	1938245	1329	152
0	1939848	1330	167
0	1941596	1331	185
0	1942957	1332	136
0	1944211	1333	115
0	1945769	1334	167
0	1947499	1335	165
0	1948753	1336	125
0	1950279	1337	157
0	1951548	1338	124
0	1953198	1339	175
0	1954500	1340	110
0	1956124	1341	159
0	1957341	1342	112
0	1958745	1343	133
0	1960178	1344	144
0	1961594	1345	139
0	1963324	1346	165
0	1964638	1347	127
0	1966163	1348	144
0	1967974	1349	174
0	1969346	1350	128
0	1970707	1351	118
0	1972272	1352	144
0	1973681	1353	142
0	1975128	1354	138
0	1976640	1355	139
0	1978024	1356	139
0	1979395	1357	138
0	1981108	1358	166
0	1983066	1359	201
0	1984823	1360	171
0	1986179	1361	131
0	1987714	1362	134
0	1989078	1363	119
0	1990494	1364	145
0	1991630	1365	109
0	1992762	1366	117
0	1993986	1367	123
0	1995453	1368	150
0	1996655	1369	109
0	1998099	1370	158
0	1999638	1371	148
0	2001066	1372	135
0	2002510	1373	163
0	2004178	1374	163
0	2005494	1375	135
0	2007024	1376	155
0	2008575	1377	140
0	2009938	1378	144
0	2011279	1379	126
0	2012699	1380	144
0	2014084	1381	134
0	2015497	1382	134
0	2017017	1383	139
0	2018565	1384	161
0	2020002	1385	140
0	2021570	1386	149
0	2023242	1387	173
0	2024898	1388	161
0	2026281	1389	142
0	2027641	1390	136
0	2029215	1391	143
0	2030450	1392	134
0	2031894	1393	113
0	2033318	1394	133
0	2034880	1395	147
0	2036304	1396	149
0	2037771	1397	168
0	2038982	1398	112
0	2040352	1399	139
0	2041862	1400	136
0	2043166	1401	121
0	2044682	1402	153
0	2045780	1403	95
0	2047275	1404	140
0	2048775	1405	129
0	2050423	1406	161
0	2052084	1407	158
0	2053550	1408	147
0	2055064	1409	131
0	2056527	1410	135
0	2057747	1411	107
0	2058960	1412	106
0	2060626	1413	159
0	2062527	1414	188
0	2063997	1415	149
0	2065728	1416	164
0	2067112	1417	127
0	2068983	1418	172
0	2069998	1419	74
0	2071256	1420	128
0	2072851	1421	156
0	2074055	1422	115
0	2075535	1423	131
0	2076904	1424	128
0	2078176	1425	113
0	2079732	1426	157
0	2081338	1427	167
0	2082633	1428	114
0	2083848	1429	122
0	2085246	1430	122
0	2086386	1431	93
0	2087769	1432	148
0	2089440	1433	174
0	2090978	1434	161
0	2092557	1435	136
0	2094072	1436	132
0	2095306	1437	117
0	2096669	1438	132
0	2098019	1439	127
0	2099353	1440	138
0	2100672	1441	142
0	2102233	1442	154
0	2103794	1443	142
0	2105213	1444	114
0	2106787	1445	155
0	2108256	1446	136
0	2109599	1447	134
0	2110964	1448	108
0	2112566	1449	159
0	2113850	1450	120
0	2115620	1451	185
0	2117234	1452	143
0	2118939	1453	162
0	2120420	1454	158
0	2122182	1455	195
0	2123438	1456	123
0	2125160	1457	171
0	2126595	1458	114
0	2128021	1459	115
0	2129330	1460	127
0	2130935	1461	152
0	2132555	1462	165
0	2134304	1463	152
0	2136033	1464	172
0	2137629	1465	151
0	2139038	1466	122
0	2140659	1467	166
0	2142435	1468	163
0	2144403	1469	215
0	2145627	1470	100
0	2147213	1471	141
0	2148565	1472	133
0	2149868	1473	106
0	2151446	1474	131
0	2152813	1475	134
0	2154461	1476	159
0	2155993	1477	139
0	2157442	1478	160
0	2158804	1479	133
0	2160267	1480	129
0	2161740	1481	154
0	2163306	1482	161
0	2164865	1483	148
0	2166089	1484	113
0	2167706	1485	156
0	2169058	1486	125
0	2170532	1487	137
0	2172037	1488	142
0	2173515	1489	153
0	2175170	1490	155
0	2176729	1491	148
0	2178088	1492	132
0	2179476	1493	113
0	2181110	1494	177
0	2182858	1495	159
0	2184566	1496	175
0	2185891	1497	122
0	2187443	1498	165
0	2188625	1499	131
0	2189873	1500	112
0	2191438	1501	152
0	2192735	1502	120
0	2193992	1503	126
0	2195385	1504	116
0	2196746	1505	138
0	2198223	1506	148
0	2199711	1507	167
0	2201408	1508	164
0	2202699	1509	132
0	2204011	1510	108
0	2205301	1511	115
0	2206621	1512	133
0	2208219	1513	137
0	2209746	1514	158
0	2211667	1515	192
0	2213393	1516	181
0	2214647	1517	107
0	2215758	1518	84
0	2217038	1519	107
0	2218611	1520	153
0	2220298	1521	140
0	2221939	1522	168
0	2223510	1523	162
0	2225082	1524	145
0	2226553	1525	138
0	2227839	1526	115
0	2229153	1527	137
0	2230526	1528	142
0	2232007	1529	164
0	2233351	1530	136
0	2234953	1531	151
0	2236397	1532	145
0	2238013	1533	147
0	2239323	1534	123
0	2240903	1535	143
0	2242532	1536	156
0	2243968	1537	139
0	2245500	1538	145
0	2246926	1539	133
0	2248493	1540	145
0	2250029	1541	145
0	2251475	1542	141
0	2252797	1543	109
0	2254273	1544	139
0	2255773	1545	159
0	2257195	1546	131
0	2258823	1547	155
0	2260160	1548	134
0	2261632	1549	127
0	2262908	1550	124
0	2264521	1551	152
0	2266229	1552	135
0	2267568	1553	130
0	2269071	1554	136
0	2270770	1555	172
0	2271927	1556	94
0	2273551	1557	159
0	2274962	1558	134
0	2276360	1559	139
0	2277737	1560	139
0	2279231	1561	151
0	2280727	1562	129
0	2281852	1563	100
0	2283220	1564	141
0	2284557	1565	140
0	2286041	1566	119
0	2287554	1567	152
0	2289090	1568	139
0	2290797	1569	166
0	2292302	1570	147
0	2294001	1571	172
0	2295577	1572	155
0	2297056	1573	150
0	2298629	1574	158
0	2300330	1575	182
0	2302138	1576	181
0	2303451	1577	108
0	2304976	1578	154
0	2306637	1579	152
0	2307900	1580	119
0	2309501	1581	168
0	2311074	1582	154
0	2312654	1583	143
0	2313982	1584	129
0	2315489	1585	150
0	2317133	1586	149
0	2318666	1587	144
0	2320037	1588	144
0	2321324	1589	104
0	2322577	1590	107
0	2323941	1591	137
0	2325153	1592	125
0	2326842	1593	172
0	2328266	1594	137
0	2329626	1595	121
0	2331533	1596	186
0	2332912	1597	128
0	2334457	1598	172
0	2336054	1599	146
0	2337569	1600	161
0	2339226	1601	146
0	2340760	1602	145
0	2342278	1603	137
0	2343647	1604	126
0	2345057	1605	141
0	2346617	1606	133
0	2348151	1607	157
0	2349804	1608	136
0	2351131	1609	112
0	2352348	1610	105
0	2353935	1611	130
0	2355400	1612	140
0	2356590	1613	99
0	2358451	1614	200