version 3
run SimulationTime-252-20240108-13:22:21-13604
attr configname SimulationTime
attr datetime 20240108-13:22:21
attr datetimef 20240108-132221
attr experiment SimulationTime
attr inifile omnetpp.ini
attr iterationvars ""
attr iterationvarsd ""
attr iterationvarsf ""
attr measurement ""
attr network System
attr processid 13604
attr repetition 252
attr replication #252
attr resultdir results
attr runnumber 252
attr seedset 252
config **.cpu.rate 1000
config **.hd.rateProcessing 250
config **.webServer.web_server_rate 100
config **.p1 0.35
config **.p2 0.40
config network System
config num-rngs 4
config **.cpu.rng-0 0
config **.cpu.rng-1 1
config **.hd.rng-0 2
config **.webServer.rng-0 3
config repeat 500
config seed-set 252
config sim-time-limit 10000s
config **.client.numClients 40

vector 0 System.server.cpu requestCounterStat:vector ETV
attr recordingmode vector
attr source requestCounter
vector 1 System.server.hd utilizationHdStat:vector ETV
attr recordingmode vector
attr source utilizationHd
vector 2 System.server.cpu utilizationCpuStat:vector ETV
attr recordingmode vector
attr source utilizationCpu
vector 3 System.webServer utilizationWsStat:vector ETV
attr recordingmode vector
attr source utilizationWs
0	2027	1	208
0	3623	2	163
0	5282	3	150
0	6876	4	161
0	8236	5	151
0	9741	6	144
0	11356	7	160
0	12793	8	122
0	14321	9	141
0	15668	10	129
0	17185	11	156
0	18324	12	102
0	19779	13	138
0	21210	14	134
0	22593	15	118
0	24073	16	159
0	25770	17	170
0	27268	18	129
0	28412	19	123
0	30121	20	159
0	31802	21	176
0	33183	22	116
0	34596	23	156
0	35828	24	121
0	37350	25	159
0	38847	26	152
0	40356	27	152
0	42010	28	143
0	43656	29	151
0	45068	30	130
0	46544	31	147
0	47720	32	109
0	49261	33	152
0	50988	34	182
0	52328	35	129
0	53868	36	169
0	55279	37	150
0	57030	38	186
0	58401	39	128
0	59854	40	163
0	61002	41	123
0	62513	42	158
0	64387	43	193
0	65989	44	145
0	67554	45	160
0	69137	46	164
0	70475	47	129
0	71947	48	125
0	73738	49	182
0	75231	50	151
0	76272	51	96
0	77786	52	131
0	79314	53	143
0	80636	54	115
0	81962	55	129
0	83278	56	113
0	84492	57	107
0	85896	58	133
0	86990	59	91
0	88282	60	106
0	89358	61	93
0	90873	62	142
0	92229	63	123
0	93552	64	138
0	95330	65	183
0	96929	66	150
0	98235	67	111
0	99550	68	130
0	101053	69	134
0	102965	70	192
0	104356	71	128
0	105948	72	159
0	107574	73	171
0	108852	74	141
0	110130	75	121
0	111710	76	145
0	113302	77	153
0	114753	78	146
0	116387	79	171
0	117973	80	190
0	119476	81	138
0	120867	82	132
0	122398	83	166
0	123621	84	108
0	124915	85	117
0	126397	86	123
0	127765	87	115
0	129245	88	149
0	130652	89	122
0	132040	90	132
0	133495	91	142
0	134856	92	124
0	136269	93	146
0	137899	94	151
0	139230	95	136
0	140507	96	120
0	142000	97	144
0	144025	98	188
0	145565	99	137
0	146806	100	111
0	148300	101	171
0	149581	102	130
0	151375	103	197
0	153006	104	154
0	154546	105	149
0	155886	106	125
0	157028	107	119
0	158376	108	137
0	159560	109	109
0	161084	110	134
0	162575	111	142
0	164392	112	154
0	165708	113	121
0	167045	114	136
0	168667	115	153
0	169914	116	108
0	171190	117	115
0	172554	118	139
0	173904	119	129
0	175690	120	178
0	176973	121	114
0	178225	122	123
0	179664	123	146
0	181147	124	178
0	182579	125	157
0	183841	126	115
0	185630	127	192
0	187042	128	153
0	188260	129	99
0	189766	130	134
0	191221	131	142
0	192855	132	153
0	194262	133	124
0	195508	134	109
0	197396	135	179
0	198770	136	143
0	199929	137	122
0	201465	138	145
0	203034	139	164
0	204482	140	144
0	205816	141	127
0	207188	142	125
0	208676	143	135
0	210274	144	157
0	211513	145	102
0	212941	146	119
0	214524	147	140
0	216009	148	132
0	217605	149	153
0	219117	150	146
0	220378	151	122
0	221701	152	124
0	223310	153	156
0	224496	154	109
0	225666	155	99
0	227351	156	154
0	228737	157	125
0	230086	158	120
0	231571	159	124
0	233055	160	150
0	234221	161	109
0	235361	162	119
0	236822	163	158
0	238169	164	126
0	239832	165	164
0	241263	166	140
0	242732	167	140
0	244090	168	135
0	245336	169	125
0	246810	170	150
0	248168	171	117
0	249475	172	122
0	250913	173	141
0	252543	174	173
0	254187	175	169
0	255717	176	155
0	257148	177	134
0	258487	178	128
0	260087	179	159
0	261530	180	145
0	262771	181	120
0	264384	182	154
0	265695	183	126
0	267069	184	113
0	268523	185	131
0	269832	186	104
0	271222	187	135
0	272796	188	149
0	274314	189	149
0	275830	190	152
0	277141	191	122
0	278814	192	168
0	280237	193	146
0	281785	194	149
0	283296	195	156
0	284576	196	109
0	286001	197	126
0	287261	198	105
0	288704	199	138
0	289970	200	122
0	291800	201	187
0	293199	202	108
0	294761	203	155
0	296160	204	134
0	297695	205	170
0	299191	206	147
0	300679	207	129
0	302070	208	122
0	303429	209	112
0	305062	210	157
0	306541	211	138
0	307937	212	129
0	309426	213	142
0	310861	214	138
0	312157	215	121
0	313757	216	145
0	315066	217	134
0	316653	218	142
0	318193	219	157
0	319695	220	122
0	320820	221	108
0	322456	222	181
0	324221	223	186
0	325880	224	160
0	327477	225	148
0	328882	226	136
0	330783	227	212
0	332048	228	116
0	333401	229	136
0	334919	230	158
0	336405	231	147
0	337705	232	117
0	338907	233	99
0	340280	234	116
0	341541	235	108
0	342864	236	132
0	344476	237	167
0	345739	238	114
0	347341	239	153
0	348762	240	117
0	350035	241	132
0	351922	242	186
0	353719	243	200
0	355440	244	186
0	356862	245	137
0	358412	246	153
0	359871	247	134
0	361380	248	164
0	362860	249	133
0	364168	250	122
0	365554	251	127
0	367084	252	153
0	368871	253	182
0	370457	254	137
0	371706	255	122
0	373326	256	145
0	374754	257	141
0	376384	258	179
0	377829	259	150
0	379616	260	173
0	381212	261	149
0	382610	262	135
0	383985	263	150
0	385447	264	129
0	386945	265	149
0	388293	266	117
0	389803	267	149
0	391198	268	120
0	392782	269	153
0	394341	270	131
0	396096	271	170
0	397540	272	147
0	398967	273	140
0	400463	274	147
0	401728	275	116
0	403356	276	147
0	404575	277	110
0	406218	278	150
0	407638	279	127
0	409056	280	144
0	410634	281	145
0	412136	282	163
0	413735	283	146
0	415353	284	155
0	416645	285	127
0	417691	286	109
0	419143	287	135
0	420609	288	127
0	422155	289	155
0	423784	290	165
0	425051	291	114
0	426320	292	110
0	427791	293	140
0	429101	294	119
0	430735	295	159
0	432446	296	154
0	433877	297	138
0	435290	298	158
0	436449	299	106
0	437645	300	110
0	439016	301	142
0	440489	302	148
0	441683	303	99
0	442881	304	99
0	444275	305	139
0	445882	306	172
0	447421	307	132
0	448868	308	144
0	450259	309	144
0	451898	310	155
0	453222	311	119
0	454708	312	161
0	456061	313	118
0	457508	314	134
0	459071	315	168
0	460380	316	114
0	462008	317	173
0	463256	318	109
0	464932	319	177
0	466359	320	135
0	468090	321	178
0	469531	322	120
0	470827	323	131
0	472431	324	165
0	473931	325	125
0	475567	326	155
0	476892	327	116
0	478145	328	118
0	479561	329	121
0	481004	330	139
0	482450	331	137
0	483813	332	138
0	484890	333	100
0	486203	334	140
0	487530	335	132
0	488995	336	130
0	490530	337	132
0	492061	338	176
0	493149	339	95
0	494889	340	158
0	496385	341	149
0	497866	342	142
0	499549	343	152
0	500895	344	123
0	502353	345	143
0	504021	346	157
0	505377	347	127
0	506872	348	142
0	508342	349	141
0	509499	350	91
0	510802	351	128
0	512163	352	150
0	513442	353	126
0	514898	354	127
0	516411	355	138
0	517969	356	143
0	519576	357	164
0	520897	358	118
0	522389	359	125
0	523821	360	124
0	525114	361	108
0	526486	362	141
0	527670	363	105
0	529271	364	148
0	530588	365	106
0	532152	366	155
0	533838	367	159
0	535343	368	144
0	536984	369	150
0	538283	370	119
0	539427	371	109
0	540830	372	148
0	542596	373	183
0	544064	374	123
0	545703	375	174
0	547158	376	144
0	548336	377	119
0	549718	378	125
0	551053	379	118
0	552370	380	133
0	553540	381	97
0	555094	382	151
0	556769	383	146
0	558176	384	122
0	559571	385	144
0	561260	386	162
0	562667	387	124
0	563999	388	143
0	565222	389	108
0	566872	390	156
0	568199	391	132
0	569644	392	146
0	571058	393	125
0	572431	394	114
0	573823	395	137
0	575274	396	118
0	576746	397	143
0	578062	398	111
0	579458	399	147
0	581299	400	203
0	582901	401	133
0	584629	402	169
0	586077	403	133
0	587523	404	141
0	589066	405	142
0	590825	406	184
0	592320	407	120
0	593625	408	142
0	595117	409	149
0	596606	410	147
0	597927	411	122
0	599629	412	149
0	601165	413	131
0	602864	414	158
0	604439	415	142
0	606007	416	147
0	607508	417	128
0	608909	418	132
0	610344	419	150
0	611764	420	132
0	613295	421	162
0	614600	422	108
0	616128	423	151
0	617440	424	123
0	618964	425	153
0	620270	426	123
0	621607	427	124
0	623095	428	141
0	624171	429	93
0	625762	430	141
0	627358	431	149
0	628795	432	132
0	630222	433	144
0	631996	434	189
0	633800	435	175
0	635350	436	159
0	636636	437	133
0	637997	438	130
0	639646	439	166
0	641142	440	132
0	642569	441	124
0	643861	442	115
0	645291	443	131
0	646742	444	144
0	648247	445	142
0	649979	446	175
0	651255	447	119
0	652983	448	165
0	654470	449	146
0	655767	450	119
0	657002	451	118
0	658340	452	111
0	659794	453	115
0	661201	454	130
0	662819	455	167
0	664258	456	154
0	665656	457	131
0	666905	458	114
0	668477	459	153
0	670315	460	184
0	671734	461	142
0	672933	462	106
0	674248	463	118
0	675558	464	131
0	676985	465	130
0	678449	466	145
0	679944	467	148
0	681113	468	104
0	682545	469	151
0	683977	470	112
0	685172	471	122
0	686348	472	105
0	687956	473	147
0	689382	474	153
0	690844	475	119
0	692296	476	143
0	693834	477	135
0	695194	478	131
0	696761	479	154
0	698129	480	136
0	700090	481	204
0	701616	482	151
0	703092	483	137
0	704682	484	155
0	706179	485	134
0	707367	486	99
0	708801	487	141
0	709964	488	120
0	711646	489	143
0	713033	490	127
0	714752	491	178
0	716582	492	157
0	718008	493	131
0	719339	494	106
0	720693	495	141
0	722251	496	155
0	723526	497	100
0	724934	498	127
0	726222	499	133
0	727663	500	133
0	728705	501	97
0	730598	502	202
0	731976	503	131
0	733434	504	135
0	734847	505	138
0	736217	506	125
0	737612	507	122
0	738842	508	111
0	740267	509	120
0	741780	510	153
0	743374	511	169
0	744590	512	117
0	745954	513	133
0	747325	514	136
0	749118	515	166
0	750565	516	124
0	752267	517	145
0	753617	518	135
0	755370	519	168
0	756969	520	153
0	758246	521	116
0	759545	522	114
0	761316	523	178
0	762825	524	150
0	764175	525	129
0	765688	526	148
0	767621	527	202
0	769085	528	151
0	770878	529	188
0	772275	530	147
0	773828	531	150
0	775630	532	167
0	776824	533	121
0	778029	534	100
0	779537	535	149
0	780959	536	131
0	782329	537	131
0	783984	538	164
0	785247	539	136
0	786482	540	145
0	788082	541	165
0	789854	542	181
0	791210	543	133
0	792615	544	132
0	794198	545	144
0	795700	546	141
0	797222	547	151
0	798689	548	138
0	800179	549	131
0	801673	550	132
0	802902	551	112
0	804440	552	129
0	805689	553	122
0	807037	554	137
0	808678	555	166
0	810315	556	164
0	811649	557	123
0	813062	558	134
0	814450	559	143
0	816118	560	156
0	817680	561	151
0	819194	562	151
0	820296	563	117
0	822092	564	181
0	823414	565	143
0	824834	566	147
0	826142	567	133
0	827458	568	121
0	828867	569	140
0	830311	570	138
0	831837	571	169
0	833312	572	138
0	834563	573	106
0	836164	574	136
0	837595	575	134
0	838948	576	138
0	840420	577	143
0	841731	578	130
0	842867	579	85
0	843921	580	106
0	845601	581	161
0	847099	582	143
0	848719	583	157
0	850270	584	126
0	851905	585	174
0	853475	586	151
0	854753	587	123
0	856349	588	149
0	857659	589	125
0	859328	590	149
0	861041	591	160
0	862055	592	85
0	863475	593	137
0	864859	594	129
0	866543	595	139
0	868275	596	173
0	869700	597	156
0	870992	598	129
0	872471	599	134
0	874017	600	138
0	875222	601	118
0	876481	602	120
0	877865	603	117
0	879190	604	122
0	880793	605	164
0	882492	606	152
0	884010	607	153
0	885704	608	167
0	886995	609	140
0	888332	610	145
0	889957	611	160
0	891233	612	121
0	892523	613	111
0	893734	614	108
0	895213	615	138
0	896526	616	116
0	897877	617	132
0	899277	618	129
0	901010	619	186
0	902613	620	157
0	903841	621	123
0	905165	622	113
0	906721	623	121
0	908384	624	170
0	909673	625	96
0	911159	626	143
0	912650	627	138
0	914227	628	166
0	915534	629	128
0	916668	630	114
0	918091	631	114
0	919258	632	110
0	920714	633	137
0	922461	634	178
0	923918	635	130
0	925668	636	179
0	927097	637	132
0	928643	638	141
0	930342	639	142
0	931777	640	117
0	933098	641	124
0	934507	642	116
0	936077	643	145
0	937518	644	160
0	939130	645	153
0	940515	646	142
0	942426	647	202
0	943884	648	149
0	945169	649	122
0	946712	650	129
0	948178	651	151
0	949633	652	154
0	950980	653	134
0	952319	654	124
0	953731	655	111
0	955142	656	134
0	956595	657	132
0	957939	658	127
0	959649	659	167
0	960967	660	128
0	962864	661	192
0	964301	662	136
0	965812	663	178
0	967338	664	159
0	968837	665	166
0	970295	666	145
0	972031	667	163
0	973505	668	143
0	974866	669	136
0	976347	670	151
0	977540	671	108
0	979089	672	136
0	980319	673	109
0	982062	674	170
0	983174	675	103
0	984943	676	164
0	986857	677	203
0	988481	678	165
0	990101	679	151
0	991524	680	131
0	993170	681	183
0	994733	682	142
0	995955	683	117
0	997436	684	126
0	999216	685	183
0	1000922	686	189
0	1002436	687	141
0	1003970	688	161
0	1004969	689	106
0	1006540	690	123
0	1007964	691	153
0	1009341	692	114
0	1010980	693	170
0	1012571	694	170
0	1013937	695	139
0	1015262	696	128
0	1016667	697	144
0	1018120	698	136
0	1019690	699	169
0	1021381	700	175
0	1022954	701	146
0	1024545	702	160
0	1026244	703	174
0	1027508	704	125
0	1028817	705	124
0	1030714	706	178
0	1032631	707	216
0	1034084	708	138
0	1035651	709	142
0	1037147	710	150
0	1038510	711	132
0	1039864	712	123
0	1041476	713	157
0	1042939	714	134
0	1044550	715	144
0	1046022	716	131
0	1047167	717	116
0	1048791	718	175
0	1050199	719	127
0	1051902	720	173
0	1053512	721	173
0	1055068	722	131
0	1056421	723	124
0	1058096	724	154
0	1059374	725	107
0	1060934	726	163
0	1062014	727	111
0	1063612	728	151
0	1065020	729	123
0	1066627	730	163
0	1068031	731	125
0	1069652	732	176
0	1071127	733	142
0	1072854	734	160
0	1074419	735	144
0	1076328	736	190
0	1077828	737	137
0	1079246	738	143
0	1080839	739	158
0	1082214	740	131
0	1083638	741	141
0	1084917	742	126
0	1086283	743	127
0	1087834	744	160
0	1089247	745	134
0	1090622	746	150
0	1092172	747	155
0	1093918	748	191
0	1095424	749	131
0	1096674	750	126
0	1098208	751	135
0	1099672	752	141
0	1101303	753	174
0	1102346	754	90
0	1103692	755	135
0	1104991	756	130
0	1106634	757	152
0	1107869	758	124
0	1109272	759	134
0	1110704	760	140
0	1112196	761	141
0	1113335	762	114
0	1114612	763	134
0	1115889	764	110
0	1117362	765	136
0	1118911	766	156
0	1120519	767	177
0	1121527	768	93
0	1123213	769	151
0	1124514	770	129
0	1125847	771	116
0	1127651	772	149
0	1129210	773	160
0	1130683	774	158
0	1131922	775	108
0	1133544	776	157
0	1135016	777	153
0	1136274	778	135
0	1137899	779	152
0	1139192	780	125
0	1140914	781	177
0	1142004	782	99
0	1143589	783	152
0	1144972	784	124
0	1146493	785	168
0	1147856	786	116
0	1149405	787	154
0	1150944	788	150
0	1152419	789	148
0	1153740	790	133
0	1155225	791	130
0	1156738	792	136
0	1158550	793	179
0	1160333	794	174
0	1162017	795	161
0	1163569	796	141
0	1165217	797	157
0	1166890	798	152
0	1168210	799	129
0	1169909	800	173
0	1171259	801	133
0	1172798	802	164
0	1174178	803	111
0	1175436	804	119
0	1176611	805	104
0	1177949	806	127
0	1179289	807	125
0	1180752	808	146
0	1182462	809	173
0	1183872	810	130
0	1185409	811	144
0	1186846	812	146
0	1188441	813	176
0	1189730	814	118
0	1191406	815	173
0	1192940	816	147
0	1194653	817	176
0	1196476	818	186
0	1197937	819	154
0	1199799	820	202
0	1201485	821	151
0	1202757	822	123
0	1204446	823	176
0	1206405	824	196
0	1207757	825	119
0	1209123	826	129
0	1210565	827	133
0	1211807	828	125
0	1213262	829	156
0	1214666	830	122
0	1216054	831	139
0	1217572	832	165
0	1218808	833	127
0	1220411	834	158
0	1222028	835	166
0	1223771	836	172
0	1225157	837	129
0	1226540	838	116
0	1227709	839	88
0	1229385	840	168
0	1230811	841	121
0	1232676	842	192
0	1234279	843	168
0	1235552	844	124
0	1236914	845	133
0	1238595	846	170
0	1240035	847	129
0	1241311	848	117
0	1242554	849	126
0	1243905	850	137
0	1245396	851	138
0	1246914	852	161
0	1248624	853	169
0	1250528	854	161
0	1252203	855	160
0	1253741	856	137
0	1255066	857	116
0	1256377	858	128
0	1257822	859	134
0	1258984	860	104
0	1260537	861	152
0	1261938	862	154
0	1263800	863	179
0	1265113	864	138
0	1266429	865	107
0	1267979	866	145
0	1269803	867	193
0	1271365	868	143
0	1272733	869	123
0	1274321	870	144
0	1275668	871	130
0	1277324	872	169
0	1278663	873	142
0	1280288	874	144
0	1281756	875	139
0	1283195	876	132
0	1284475	877	127
0	1286290	878	176
0	1287642	879	119
0	1289372	880	192
0	1290919	881	162
0	1292311	882	147
0	1293635	883	111
0	1295357	884	201
0	1296715	885	129
0	1298040	886	136
0	1299368	887	121
0	1301017	888	152
0	1302407	889	145
0	1303700	890	129
0	1305258	891	167
0	1307063	892	172
0	1308431	893	123
0	1309950	894	150
0	1311719	895	170
0	1313405	896	167
0	1314843	897	145
0	1316303	898	147
0	1317855	899	149
0	1319234	900	125
0	1320720	901	145
0	1322317	902	170
0	1323444	903	90
0	1324789	904	132
0	1326018	905	100
0	1327404	906	147
0	1328783	907	142
0	1330315	908	165
0	1331481	909	115
0	1332900	910	125
0	1334548	911	155
0	1335871	912	120
0	1337221	913	107
0	1338479	914	113
0	1339802	915	124
0	1341401	916	142
0	1342768	917	130
0	1344063	918	124
0	1345212	919	96
0	1346870	920	164
0	1348400	921	135
0	1349865	922	128
0	1351083	923	97
0	1352654	924	140
0	1354031	925	136
0	1355333	926	121
0	1357054	927	172
0	1358714	928	143
0	1360149	929	146
0	1361703	930	150
0	1363485	931	163
0	1365096	932	160
0	1366674	933	153
0	1367896	934	111
0	1369341	935	138
0	1370800	936	128
0	1372331	937	162
0	1373504	938	104
0	1374906	939	131
0	1376448	940	130
0	1377982	941	157
0	1379544	942	145
0	1380559	943	112
0	1382078	944	152
0	1383307	945	112
0	1384807	946	123
0	1386356	947	146
0	1387808	948	145
0	1389485	949	172
0	1391068	950	169
0	1392743	951	166
0	1394309	952	151
0	1395752	953	142
0	1397091	954	118
0	1398529	955	149
0	1399713	956	121
0	1401166	957	142
0	1402448	958	119
0	1404013	959	152
0	1405509	960	146
0	1407002	961	144
0	1408529	962	148
0	1410129	963	153
0	1411925	964	181
0	1413455	965	175
0	1414893	966	143
0	1416418	967	144
0	1417889	968	134
0	1419641	969	181
0	1421203	970	156
0	1422520	971	146
0	1423568	972	97
0	1425034	973	151
0	1426450	974	135
0	1427762	975	123
0	1429317	976	146
0	1430517	977	119
0	1432187	978	155
0	1433611	979	119
0	1435164	980	163
0	1437080	981	189
0	1438915	982	170
0	1440721	983	181
0	1441914	984	114
0	1443099	985	112
0	1444461	986	131
0	1446129	987	173
0	1447517	988	121
0	1448884	989	138
0	1450820	990	188
0	1452286	991	131
0	1454053	992	182
0	1455591	993	157
0	1457096	994	144
0	1458630	995	165
0	1459908	996	119
0	1461357	997	160
0	1462849	998	145
0	1464186	999	124
0	1465386	1000	124
0	1466648	1001	125
0	1467910	1002	119
0	1469554	1003	187
0	1470996	1004	135
0	1472328	1005	129
0	1474033	1006	176
0	1475461	1007	135
0	1476937	1008	131
0	1478537	1009	153
0	1480154	1010	151
0	1481537	1011	134
0	1482988	1012	134
0	1484409	1013	128
0	1485775	1014	135
0	1487432	1015	168
0	1488976	1016	145
0	1490495	1017	142
0	1492165	1018	173
0	1493648	1019	126
0	1495057	1020	109
0	1496496	1021	146
0	1498201	1022	156
0	1499534	1023	86
0	1500929	1024	136
0	1502333	1025	125
0	1503876	1026	136
0	1505391	1027	156
0	1506677	1028	107
0	1507907	1029	109
0	1509192	1030	129
0	1510449	1031	120
0	1511772	1032	114
0	1512921	1033	104
0	1514677	1034	165
0	1516118	1035	128
0	1517550	1036	141
0	1518781	1037	132
0	1520503	1038	181
0	1522129	1039	147
0	1523655	1040	144
0	1525021	1041	133
0	1526567	1042	155
0	1527659	1043	105
0	1529135	1044	129
0	1530602	1045	140
0	1532018	1046	141
0	1533651	1047	166
0	1534877	1048	111
0	1536506	1049	142
0	1538085	1050	165
0	1539367	1051	113
0	1540636	1052	116
0	1541792	1053	101
0	1542994	1054	103
0	1544401	1055	120
0	1545866	1056	138
0	1547304	1057	145
0	1548700	1058	151
0	1549975	1059	126
0	1551306	1060	109
0	1552973	1061	174
0	1554728	1062	156
0	1556181	1063	110
0	1557414	1064	108
0	1558636	1065	123
0	1560175	1066	158
0	1561421	1067	119
0	1563071	1068	151
0	1564614	1069	140
0	1566183	1070	147
0	1567543	1071	143
0	1569004	1072	128
0	1570638	1073	139
0	1571758	1074	113
0	1573504	1075	163
0	1574953	1076	142
0	1576330	1077	130
0	1577768	1078	135
0	1579206	1079	133
0	1580638	1080	124
0	1582003	1081	142
0	1582948	1082	88
0	1584351	1083	126
0	1585709	1084	135
0	1587200	1085	138
0	1588858	1086	171
0	1590142	1087	113
0	1591649	1088	156
0	1593038	1089	124
0	1594461	1090	119
0	1595862	1091	132
0	1597312	1092	143
0	1598822	1093	163
0	1600016	1094	107
0	1601539	1095	162
0	1602957	1096	145
0	1604541	1097	159
0	1606132	1098	154
0	1607403	1099	146
0	1609172	1100	175
0	1610913	1101	160
0	1612307	1102	125
0	1613924	1103	150
0	1615187	1104	128
0	1616541	1105	117
0	1617949	1106	121
0	1619050	1107	108
0	1620404	1108	123
0	1622009	1109	148
0	1623437	1110	148
0	1624956	1111	158
0	1627025	1112	220
0	1628635	1113	145
0	1630033	1114	121
0	1631393	1115	125
0	1632895	1116	155
0	1634231	1117	137
0	1635768	1118	138
0	1637255	1119	136
0	1638489	1120	142
0	1639802	1121	124
0	1641350	1122	143
0	1642698	1123	127
0	1644250	1124	157
0	1645858	1125	157
0	1647493	1126	156
0	1649032	1127	144
0	1650918	1128	189
0	1652535	1129	150
0	1653921	1130	148
0	1655244	1131	140
0	1656920	1132	157
0	1658119	1133	130
0	1659876	1134	172
0	1661338	1135	127
0	1662849	1136	152
0	1664494	1137	170
0	1665799	1138	116
0	1667103	1139	113
0	1668446	1140	129
0	1669933	1141	134
0	1671420	1142	142
0	1672768	1143	119
0	1674167	1144	126
0	1675587	1145	119
0	1676971	1146	143
0	1678212	1147	102
0	1679666	1148	153
0	1680856	1149	115
0	1682550	1150	184
0	1683968	1151	131
0	1685342	1152	123
0	1686757	1153	138
0	1688061	1154	125
0	1689414	1155	132
0	1690726	1156	117
0	1692208	1157	151
0	1694022	1158	195
0	1695481	1159	132
0	1696783	1160	124
0	1698245	1161	143
0	1699737	1162	139
0	1701077	1163	135
0	1702526	1164	144
0	1703836	1165	119
0	1705212	1166	113
0	1706590	1167	119
0	1707821	1168	138
0	1709422	1169	140
0	1711263	1170	179
0	1712871	1171	161
0	1714190	1172	116
0	1715568	1173	123
0	1717273	1174	170
0	1718674	1175	152
0	1720338	1176	169
0	1721882	1177	129
0	1723126	1178	111
0	1724157	1179	82
0	1725789	1180	150
0	1727247	1181	137
0	1728547	1182	121
0	1729998	1183	128
0	1731511	1184	140
0	1733054	1185	138
0	1734745	1186	146
0	1736534	1187	180
0	1737998	1188	141
0	1739584	1189	155
0	1741409	1190	185
0	1743146	1191	170
0	1744251	1192	108
0	1745613	1193	139
0	1746999	1194	123
0	1748470	1195	148
0	1749836	1196	107
0	1751285	1197	130
0	1752566	1198	132
0	1753631	1199	74
0	1755203	1200	146
0	1756611	1201	137
0	1757837	1202	115
0	1759205	1203	129
0	1760571	1204	135
0	1762066	1205	138
0	1763706	1206	173
0	1765208	1207	157
0	1766457	1208	120
0	1768027	1209	141
0	1769314	1210	121
0	1770901	1211	142
0	1772716	1212	166
0	1774499	1213	164
0	1776274	1214	156
0	1777827	1215	150
0	1779379	1216	155
0	1781000	1217	156
0	1782652	1218	157
0	1783981	1219	120
0	1785354	1220	131
0	1786774	1221	137
0	1787996	1222	107
0	1789246	1223	111
0	1790369	1224	98
0	1791778	1225	138
0	1793043	1226	128
0	1794263	1227	105
0	1795742	1228	140
0	1797493	1229	180
0	1799157	1230	166
0	1800469	1231	117
0	1802014	1232	148
0	1803276	1233	131
0	1805000	1234	165
0	1806377	1235	136
0	1808249	1236	187
0	1809824	1237	160
0	1811535	1238	142
0	1812938	1239	150
0	1814232	1240	112
0	1815555	1241	112
0	1816814	1242	116
0	1818485	1243	156
0	1819745	1244	121
0	1821234	1245	138
0	1822788	1246	159
0	1823938	1247	105
0	1825560	1248	147
0	1827007	1249	146
0	1828730	1250	159
0	1829981	1251	120
0	1831267	1252	111
0	1832556	1253	142
0	1834158	1254	153
0	1835964	1255	179
0	1837300	1256	123
0	1838433	1257	94
0	1840073	1258	161
0	1841937	1259	185
0	1843571	1260	176
0	1844883	1261	133
0	1846424	1262	162
0	1847899	1263	132
0	1849328	1264	128
0	1850672	1265	121
0	1852250	1266	147
0	1853636	1267	125
0	1855067	1268	116
0	1855999	1269	89
0	1857595	1270	152
0	1859143	1271	143
0	1860483	1272	121
0	1861873	1273	135
0	1863434	1274	146
0	1864723	1275	130
0	1866013	1276	143
0	1867527	1277	149
0	1868976	1278	162
0	1870277	1279	152
0	1871587	1280	126
0	1873104	1281	144
0	1874267	1282	112
0	1876069	1283	185
0	1877626	1284	164
0	1878821	1285	124
0	1880138	1286	128
0	1881414	1287	119
0	1882840	1288	127
0	1884440	1289	133
0	1886019	1290	153
0	1887115	1291	113
0	1888581	1292	131
0	1890143	1293	147
0	1891974	1294	190
0	1893164	1295	123
0	1894692	1296	139
0	1896090	1297	141
0	1897666	1298	159
0	1899305	1299	152
0	1900824	1300	139
0	1902335	1301	162
0	1903685	1302	141
0	1905148	1303	138
0	1906640	1304	133
0	1907861	1305	110
0	1909141	1306	127
0	1911014	1307	178
0	1912525	1308	120
0	1914132	1309	144
0	1915278	1310	108
0	1916684	1311	135
0	1918167	1312	134
0	1919716	1313	132
0	1921277	1314	156
0	1922634	1315	134
0	1924093	1316	150
0	1925475	1317	133
0	1926848	1318	104
0	1927948	1319	97
0	1929299	1320	131
0	1930855	1321	135
0	1932574	1322	158
0	1934324	1323	171
0	1935872	1324	161
0	1937089	1325	120
0	1938475	1326	131
0	1939885	1327	135
0	1941370	1328	148
0	1942470	1329	93
0	1943726	1330	124
0	1944992	1331	119
0	1946404	1332	133
0	1947537	1333	106
0	1949139	1334	157
0	1950383	1335	129
0	1951826	1336	150
0	1953090	1337	121
0	1954263	1338	108
0	1955551	1339	125
0	1956949	1340	128
0	1958649	1341	187
0	1959795	1342	125
0	1961522	1343	172
0	1963092	1344	147
0	1964664	1345	141
0	1966323	1346	162
0	1967936	1347	156
0	1969362	1348	135
0	1970667	1349	118
0	1971809	1350	106
0	1973319	1351	161
0	1974740	1352	140
0	1976620	1353	197
0	1978032	1354	129
0	1979642	1355	163
0	1981302	1356	157
0	1982799	1357	112
0	1984101	1358	127
0	1985712	1359	126
0	1987166	1360	142
0	1988688	1361	145
0	1990373	1362	170
0	1991752	1363	126
0	1993323	1364	154
0	1994625	1365	107
0	1995888	1366	134
0	1997334	1367	153
0	1998687	1368	130
0	2000327	1369	145
0	2001564	1370	127
0	2003172	1371	151
0	2004512	1372	127
0	2006034	1373	129
0	2007408	1374	121
0	2008952	1375	145
0	2010378	1376	127
0	2011800	1377	131
0	2013333	1378	150
0	2014923	1379	159
0	2016240	1380	129
0	2017504	1381	113
0	2018792	1382	109
0	2020229	1383	122
0	2021794	1384	146
0	2023153	1385	126
0	2024859	1386	159
0	2026151	1387	131
0	2027467	1388	123
0	2029003	1389	149
0	2030353	1390	136
0	2031856	1391	148
0	2033116	1392	125
0	2034528	1393	129
0	2035966	1394	127
0	2037106	1395	105
0	2038240	1396	111
0	2039657	1397	128
0	2041292	1398	168
0	2042708	1399	137
0	2044032	1400	118
0	2045405	1401	152
0	2046626	1402	116
0	2048009	1403	134
0	2049426	1404	140
0	2050700	1405	133
0	2052074	1406	129
0	2053683	1407	158
0	2055273	1408	161
0	2056916	1409	162
0	2058138	1410	100
0	2059843	1411	152
0	2061357	1412	151
0	2062807	1413	137
0	2064225	1414	135
0	2065818	1415	156
0	2067102	1416	121
0	2068531	1417	136
0	2070078	1418	170
0	2071444	1419	123
0	2072636	1420	116
0	2074101	1421	122
0	2075318	1422	104
0	2076634	1423	111
0	2077947	1424	136
0	2079273	1425	141
0	2080699	1426	131
0	2082275	1427	157
0	2083890	1428	180
0	2085562	1429	153
0	2087079	1430	139
0	2088615	1431	149
0	2090129	1432	139
0	2091791	1433	163
0	2093469	1434	171
0	2095267	1435	171
0	2096911	1436	157
0	2098207	1437	125
0	2099566	1438	118
0	2100866	1439	107
0	2102163	1440	119
0	2103580	1441	150
0	2105041	1442	114
0	2106720	1443	152
0	2107900	1444	101
0	2109119	1445	118
0	2110434	1446	130
0	2111649	1447	114
0	2112904	1448	130
0	2114071	1449	130
0	2115344	1450	123
0	2116842	1451	179
0	2117916	1452	99
0	2119256	1453	125
0	2121000	1454	171
0	2122285	1455	114
0	2123820	1456	130
0	2125329	1457	158
0	2126918	1458	158
0	2128248	1459	119
0	2129617	1460	115
0	2130747	1461	87
0	2132141	1462	133
0	2133363	1463	113
0	2134656	1464	106
0	2135917	1465	108
0	2137440	1466	146
0	2138895	1467	154
0	2140672	1468	190
0	2141976	1469	123
0	2143457	1470	137
0	2145137	1471	161
0	2146498	1472	140
0	2147924	1473	147
0	2149450	1474	147
0	2150915	1475	152
0	2152661	1476	175
0	2154004	1477	130
0	2155407	1478	132
0	2156932	1479	136
0	2158610	1480	156
0	2160129	1481	174
0	2161690	1482	146
0	2163334	1483	169
0	2164886	1484	155
0	2166339	1485	134
0	2167940	1486	178
0	2169602	1487	131
0	2171245	1488	168
0	2172695	1489	149
0	2174136	1490	151
0	2175332	1491	117
0	2176665	1492	138
0	2178273	1493	181
0	2179616	1494	118
0	2180988	1495	125
0	2182569	1496	168
0	2183928	1497	130
0	2185677	1498	182
0	2187156	1499	128
0	2188947	1500	161
0	2190482	1501	148
0	2191939	1502	148
0	2193398	1503	144
0	2194842	1504	139
0	2196093	1505	130
0	2197456	1506	130
0	2198826	1507	115
0	2200307	1508	132
0	2201836	1509	148
0	2203406	1510	130
0	2204946	1511	143
0	2206515	1512	142
0	2208115	1513	147
0	2209391	1514	127
0	2210832	1515	136
0	2212419	1516	148
0	2214161	1517	189
0	2215370	1518	112
0	2216562	1519	107
0	2217846	1520	126
0	2219458	1521	141
0	2221137	1522	154
0	2222491	1523	119
0	2223932	1524	136
0	2225559	1525	158
0	2227216	1526	158
0	2228625	1527	120
0	2229991	1528	121
0	2231666	1529	146
0	2233036	1530	116
0	2234622	1531	141
0	2235988	1532	119
0	2237305	1533	128
0	2238939	1534	163
0	2240575	1535	153
0	2242024	1536	120
0	2243537	1537	134
0	2245103	1538	153
0	2246241	1539	101
0	2247709	1540	138
0	2249312	1541	164
0	2250881	1542	158
0	2252570	1543	164
0	2254062	1544	141
0	2255530	1545	125
0	2256901	1546	116
0	2258368	1547	140
0	2259783	1548	136
0	2261268	1549	122
0	2262964	1550	184
0	2264389	1551	144
0	2266068	1552	158
0	2267606	1553	157
0	2269265	1554	142
0	2270803	1555	169
0	2272519	1556	159
0	2273787	1557	119
0	2275030	1558	130
0	2276644	1559	183
0	2278403	1560	177
0	2279805	1561	127
0	2281378	1562	160
0	2283182	1563	185
0	2284476	1564	115
0	2286302	1565	183
0	2287541	1566	114
0	2288774	1567	120
0	2289854	1568	103
0	2291277	1569	142
0	2292709	1570	132
0	2294271	1571	137
0	2295876	1572	140
0	2297338	1573	143
0	2298428	1574	99
0	2299962	1575	147
0	2301755	1576	180
0	2303141	1577	127
0	2304364	1578	90
0	2305625	1579	112
0	2307471	1580	174
0	2308948	1581	144
0	2310562	1582	153
0	2311787	1583	118
0	2313108	1584	114
0	2314782	1585	151
0	2316209	1586	140
0	2317612	1587	132
0	2318845	1588	110
0	2320438	1589	168
0	2322066	1590	170
0	2323910	1591	179
0	2325330	1592	137
0	2326833	1593	142
0	2328468	1594	182
0	2329982	1595	135
0	2331668	1596	167
0	2333299	1597	134
0	2334975	1598	169
0	2336475	1599	153
0	2338030	1600	157
0	2339200	1601	119
0	2340906	1602	171
0	2342297	1603	116
0	2343959	1604	165
0	2345495	1605	149
0	2346898	1606	134
0	2348391	1607	148
0	2350009	1608	171
0	2351590	1609	148
0	2352900	1610	122
0	2354093	1611	108
0	2355898	1612	164
0	2357641	1613	170
0	2359260	1614	170