version 3
run SimulationTime-233-20240108-13:22:09-14536
attr configname SimulationTime
attr datetime 20240108-13:22:09
attr datetimef 20240108-132209
attr experiment SimulationTime
attr inifile omnetpp.ini
attr iterationvars ""
attr iterationvarsd ""
attr iterationvarsf ""
attr measurement ""
attr network System
attr processid 14536
attr repetition 233
attr replication #233
attr resultdir results
attr runnumber 233
attr seedset 233
config **.cpu.rate 1000
config **.hd.rateProcessing 250
config **.webServer.web_server_rate 100
config **.p1 0.35
config **.p2 0.40
config network System
config num-rngs 4
config **.cpu.rng-0 0
config **.cpu.rng-1 1
config **.hd.rng-0 2
config **.webServer.rng-0 3
config repeat 500
config seed-set 233
config sim-time-limit 10000s
config **.client.numClients 40

vector 0 System.server.cpu requestCounterStat:vector ETV
attr recordingmode vector
attr source requestCounter
vector 1 System.server.hd utilizationHdStat:vector ETV
attr recordingmode vector
attr source utilizationHd
vector 2 System.server.cpu utilizationCpuStat:vector ETV
attr recordingmode vector
attr source utilizationCpu
vector 3 System.webServer utilizationWsStat:vector ETV
attr recordingmode vector
attr source utilizationWs
0	1950	1	183
0	3660	2	171
0	5117	3	132
0	6307	4	111
0	7815	5	141
0	9568	6	202
0	10763	7	104
0	12466	8	174
0	13863	9	136
0	15271	10	136
0	16646	11	142
0	17871	12	100
0	19236	13	144
0	20695	14	150
0	22068	15	126
0	23705	16	162
0	25126	17	136
0	26466	18	123
0	28144	19	165
0	29601	20	131
0	31412	21	196
0	32723	22	128
0	33947	23	113
0	35322	24	114
0	36796	25	155
0	38072	26	113
0	39386	27	123
0	40633	28	140
0	42351	29	163
0	43924	30	165
0	45704	31	175
0	47340	32	157
0	48610	33	117
0	49910	34	137
0	51447	35	160
0	53344	36	182
0	54733	37	130
0	56286	38	162
0	57842	39	139
0	59198	40	128
0	60871	41	166
0	62277	42	129
0	63740	43	126
0	65000	44	113
0	66334	45	131
0	67742	46	145
0	69451	47	168
0	70868	48	148
0	72407	49	146
0	74180	50	187
0	75804	51	157
0	77266	52	131
0	78998	53	157
0	80724	54	173
0	82512	55	185
0	83853	56	138
0	85395	57	147
0	86444	58	72
0	87863	59	134
0	89690	60	185
0	91119	61	148
0	92531	62	139
0	93951	63	115
0	95501	64	147
0	96791	65	115
0	98203	66	127
0	99673	67	145
0	101044	68	134
0	102447	69	140
0	103581	70	114
0	105341	71	179
0	106575	72	107
0	108104	73	152
0	109258	74	107
0	110460	75	107
0	112057	76	182
0	113641	77	139
0	115252	78	156
0	116619	79	132
0	117966	80	115
0	119353	81	144
0	120691	82	121
0	122162	83	128
0	123633	84	146
0	125014	85	130
0	126319	86	114
0	127769	87	131
0	129208	88	146
0	130785	89	152
0	132284	90	155
0	133805	91	140
0	135505	92	147
0	136883	93	131
0	138345	94	131
0	139792	95	162
0	141262	96	137
0	142585	97	132
0	143817	98	109
0	145068	99	120
0	146582	100	164
0	148212	101	145
0	149692	102	147
0	150839	103	112
0	151904	104	110
0	153225	105	122
0	154797	106	139
0	156521	107	177
0	157671	108	115
0	159292	109	162
0	160817	110	129
0	162506	111	162
0	163751	112	118
0	164999	113	109
0	166404	114	136
0	167856	115	139
0	169196	116	135
0	170349	117	108
0	171851	118	129
0	173194	119	114
0	174721	120	147
0	176113	121	145
0	177353	122	113
0	178829	123	149
0	180596	124	164
0	181817	125	102
0	183224	126	142
0	184631	127	136
0	186007	128	119
0	187165	129	95
0	188862	130	169
0	190541	131	154
0	191796	132	130
0	193204	133	131
0	194316	134	113
0	195414	135	97
0	196861	136	136
0	198261	137	145
0	199493	138	121
0	201052	139	168
0	202719	140	165
0	204480	141	162
0	205941	142	144
0	207336	143	132
0	208847	144	142
0	210346	145	142
0	212021	146	156
0	213606	147	136
0	215384	148	167
0	216538	149	99
0	217871	150	135
0	219207	151	127
0	220725	152	133
0	222086	153	120
0	223778	154	167
0	225313	155	144
0	226701	156	135
0	228229	157	165
0	229442	158	104
0	230752	159	121
0	232440	160	150
0	233584	161	123
0	234862	162	123
0	236278	163	143
0	238052	164	145
0	239503	165	146
0	241086	166	150
0	242410	167	129
0	243950	168	169
0	245114	169	113
0	246524	170	116
0	247981	171	134
0	249151	172	109
0	250674	173	148
0	252104	174	139
0	253513	175	156
0	254515	176	67
0	256174	177	182
0	257538	178	117
0	258977	179	142
0	260412	180	141
0	261735	181	122
0	263373	182	177
0	264854	183	136
0	266377	184	160
0	267653	185	127
0	269128	186	126
0	270768	187	163
0	272208	188	141
0	273812	189	161
0	275210	190	146
0	276555	191	120
0	277851	192	129
0	279140	193	136
0	280403	194	124
0	281718	195	136
0	283079	196	146
0	284517	197	127
0	286009	198	131
0	287717	199	171
0	289373	200	166
0	290724	201	122
0	292001	202	124
0	293672	203	168
0	294986	204	121
0	296649	205	166
0	297904	206	116
0	299347	207	138
0	300735	208	121
0	302404	209	166
0	303893	210	137
0	305169	211	151
0	306491	212	123
0	308016	213	120
0	309249	214	94
0	310647	215	135
0	312189	216	145
0	313653	217	137
0	314857	218	109
0	316181	219	123
0	318183	220	204
0	319817	221	171
0	321450	222	148
0	323008	223	151
0	324521	224	130
0	326065	225	153
0	327878	226	174
0	329411	227	140
0	330987	228	153
0	332663	229	157
0	334083	230	132
0	335763	231	177
0	337390	232	162
0	338825	233	134
0	340413	234	157
0	341637	235	129
0	343306	236	154
0	344733	237	116
0	346172	238	144
0	347642	239	141
0	349182	240	156
0	350445	241	110
0	351959	242	145
0	353279	243	119
0	355137	244	185
0	356888	245	184
0	358347	246	134
0	359763	247	129
0	361194	248	144
0	362678	249	141
0	363896	250	120
0	365459	251	144
0	367234	252	156
0	368855	253	160
0	370344	254	162
0	371997	255	150
0	373698	256	150
0	375160	257	129
0	376459	258	114
0	377755	259	129
0	379162	260	121
0	380886	261	165
0	382000	262	87
0	383363	263	122
0	384988	264	158
0	386324	265	123
0	387578	266	123
0	388794	267	129
0	390202	268	141
0	391488	269	115
0	392883	270	135
0	394458	271	160
0	396494	272	207
0	398022	273	135
0	399701	274	166
0	401136	275	136
0	402632	276	125
0	404172	277	129
0	405263	278	106
0	406848	279	150
0	408313	280	139
0	409388	281	92
0	411180	282	181
0	412768	283	147
0	414485	284	144
0	415732	285	128
0	417140	286	145
0	418875	287	188
0	420038	288	88
0	421671	289	154
0	423349	290	154
0	424990	291	176
0	426340	292	133
0	427908	293	139
0	429513	294	176
0	431001	295	133
0	432287	296	107
0	433671	297	139
0	435073	298	149
0	436483	299	127
0	437946	300	129
0	439740	301	179
0	441105	302	132
0	443043	303	191
0	444340	304	116
0	446072	305	179
0	447343	306	124
0	449058	307	158
0	450581	308	134
0	452263	309	167
0	453543	310	136
0	454794	311	90
0	455927	312	110
0	457572	313	158
0	459091	314	152
0	460573	315	133
0	462012	316	134
0	463430	317	151
0	464766	318	113
0	466280	319	151
0	467798	320	142
0	469113	321	132
0	470798	322	152
0	471942	323	111
0	473445	324	146
0	475087	325	175
0	476565	326	131
0	477890	327	124
0	479437	328	156
0	480883	329	161
0	482188	330	107
0	483711	331	154
0	485365	332	171
0	486961	333	185
0	488072	334	110
0	489453	335	152
0	490845	336	159
0	492311	337	139
0	493718	338	140
0	494970	339	131
0	496621	340	139
0	498058	341	130
0	499738	342	171
0	501235	343	140
0	502424	344	106
0	503754	345	127
0	505284	346	141
0	506589	347	120
0	507952	348	136
0	509324	349	131
0	510796	350	158
0	512039	351	116
0	513488	352	136
0	515035	353	146
0	516611	354	161
0	518209	355	157
0	519942	356	178
0	521402	357	121
0	523149	358	162
0	524744	359	148
0	526424	360	186
0	527741	361	120
0	528936	362	112
0	530326	363	133
0	531742	364	141
0	533079	365	116
0	534781	366	167
0	536230	367	140
0	537817	368	142
0	539481	369	153
0	540811	370	132
0	542345	371	157
0	543748	372	132
0	545017	373	134
0	546239	374	107
0	547481	375	123
0	548471	376	95
0	550081	377	159
0	551456	378	142
0	553153	379	164
0	554514	380	129
0	555921	381	130
0	557410	382	126
0	558682	383	113
0	559902	384	121
0	561435	385	144
0	563097	386	167
0	564352	387	114
0	565849	388	144
0	567185	389	125
0	568660	390	143
0	569884	391	103
0	571241	392	124
0	572845	393	177
0	574319	394	143
0	575548	395	108
0	576985	396	138
0	578300	397	120
0	580018	398	173
0	581142	399	107
0	582396	400	118
0	583822	401	143
0	585335	402	152
0	586782	403	148
0	588145	404	112
0	589404	405	114
0	591048	406	147
0	592789	407	182
0	594568	408	166
0	596080	409	155
0	597572	410	146
0	599060	411	155
0	600266	412	123
0	601721	413	128
0	603001	414	117
0	604205	415	117
0	605672	416	134
0	607311	417	174
0	608637	418	123
0	609915	419	125
0	611043	420	102
0	612526	421	142
0	614036	422	147
0	615427	423	122
0	616747	424	117
0	618009	425	119
0	619669	426	157
0	621263	427	145
0	622891	428	143
0	624067	429	101
0	625657	430	172
0	626976	431	132
0	628472	432	141
0	629789	433	128
0	631173	434	137
0	632290	435	110
0	633538	436	107
0	635317	437	182
0	636468	438	112
0	637813	439	126
0	639084	440	121
0	640897	441	184
0	642641	442	189
0	644139	443	137
0	645659	444	139
0	647090	445	154
0	648739	446	180
0	650256	447	152
0	651695	448	142
0	653089	449	137
0	654489	450	134
0	655627	451	107
0	657131	452	141
0	658726	453	154
0	660176	454	131
0	661803	455	142
0	663277	456	143
0	664466	457	132
0	665951	458	140
0	667307	459	107
0	668797	460	140
0	670277	461	125
0	671924	462	140
0	673326	463	149
0	674624	464	125
0	676047	465	140
0	677281	466	105
0	678735	467	155
0	680418	468	190
0	681961	469	140
0	683380	470	153
0	684945	471	152
0	686413	472	149
0	687916	473	146
0	689442	474	143
0	690880	475	143
0	692632	476	179
0	694083	477	156
0	695617	478	129
0	697221	479	165
0	698561	480	118
0	700242	481	174
0	701675	482	128
0	703244	483	160
0	704830	484	149
0	706466	485	147
0	707888	486	137
0	709146	487	113
0	711041	488	174
0	712436	489	130
0	713877	490	137
0	715341	491	157
0	717174	492	180
0	718645	493	134
0	720031	494	119
0	721627	495	149
0	723126	496	146
0	724414	497	123
0	725695	498	112
0	727306	499	174
0	728947	500	173
0	730237	501	119
0	731691	502	125
0	733319	503	191
0	734884	504	144
0	736207	505	126
0	737653	506	135
0	739491	507	183
0	741104	508	158
0	742407	509	108
0	743641	510	112
0	745172	511	152
0	746422	512	129
0	747863	513	134
0	749435	514	169
0	751052	515	144
0	752485	516	140
0	754060	517	146
0	755493	518	128
0	756782	519	124
0	758554	520	178
0	760106	521	151
0	761359	522	108
0	762760	523	140
0	764222	524	159
0	765447	525	128
0	766740	526	120
0	768268	527	151
0	769994	528	157
0	771381	529	134
0	772711	530	138
0	774269	531	131
0	776079	532	171
0	777862	533	186
0	779144	534	135
0	780540	535	147
0	781999	536	130
0	783837	537	177
0	785274	538	142
0	786375	539	110
0	787796	540	147
0	789188	541	115
0	790552	542	131
0	792381	543	184
0	793845	544	143
0	795198	545	138
0	796546	546	121
0	797714	547	107
0	799241	548	140
0	800702	549	118
0	802355	550	149
0	803761	551	143
0	805168	552	114
0	806427	553	114
0	808000	554	152
0	809416	555	129
0	810822	556	135
0	812437	557	138
0	813937	558	147
0	815761	559	183
0	817390	560	175
0	818968	561	149
0	820247	562	122
0	821791	563	151
0	822934	564	102
0	824476	565	141
0	826030	566	149
0	827679	567	156
0	829301	568	163
0	830580	569	114
0	831747	570	99
0	833097	571	121
0	834418	572	144
0	836074	573	171
0	837220	574	93
0	838703	575	148
0	840081	576	125
0	841323	577	107
0	842503	578	119
0	844242	579	174
0	845961	580	187
0	847746	581	196
0	849174	582	135
0	850878	583	159
0	852433	584	142
0	853677	585	115
0	855031	586	117
0	856490	587	126
0	857956	588	143
0	859563	589	142
0	860899	590	116
0	862393	591	143
0	864185	592	177
0	865827	593	153
0	867228	594	132
0	868895	595	154
0	870162	596	120
0	871713	597	166
0	872792	598	104
0	874065	599	110
0	875761	600	158
0	877215	601	125
0	878760	602	148
0	879957	603	128
0	881183	604	111
0	882875	605	157
0	884472	606	160
0	885800	607	131
0	887486	608	181
0	888706	609	113
0	889967	610	143
0	891271	611	117
0	892725	612	157
0	894170	613	156
0	895484	614	129
0	896816	615	115
0	898237	616	134
0	899907	617	179
0	901349	618	143
0	902753	619	133
0	904216	620	139
0	905591	621	128
0	907074	622	150
0	908078	623	93
0	909390	624	119
0	910738	625	113
0	912173	626	140
0	913776	627	146
0	915237	628	144
0	916628	629	138
0	917948	630	116
0	919096	631	109
0	920298	632	103
0	921599	633	116
0	922960	634	116
0	924292	635	125
0	925924	636	141
0	927895	637	192
0	929262	638	128
0	930623	639	144
0	932422	640	173
0	933827	641	138
0	935441	642	151
0	936981	643	151
0	938603	644	157
0	940104	645	140
0	941271	646	112
0	942709	647	129
0	943915	648	109
0	945453	649	169
0	946751	650	120
0	948117	651	127
0	949359	652	123
0	950797	653	135
0	952091	654	117
0	953299	655	107
0	954544	656	112
0	955567	657	96
0	957106	658	146
0	958445	659	130
0	959834	660	129
0	961051	661	128
0	962523	662	139
0	964228	663	162
0	965949	664	168
0	967269	665	121
0	968556	666	130
0	970150	667	151
0	971671	668	150
0	973216	669	138
0	974541	670	139
0	976088	671	164
0	977538	672	145
0	979166	673	153
0	980548	674	143
0	981842	675	119
0	983220	676	137
0	984549	677	122
0	985934	678	140
0	987805	679	192
0	989410	680	149
0	991553	681	222
0	993321	682	177
0	994857	683	133
0	996247	684	133
0	997666	685	140
0	999045	686	122
0	1000604	687	130
0	1002214	688	143
0	1003929	689	174
0	1005275	690	126
0	1006558	691	126
0	1007787	692	120
0	1009003	693	93
0	1010272	694	130
0	1011488	695	123
0	1013002	696	143
0	1014712	697	175
0	1015968	698	117
0	1017360	699	151
0	1018916	700	146
0	1020700	701	169
0	1022228	702	145
0	1023443	703	114
0	1024877	704	139
0	1026616	705	158
0	1028206	706	151
0	1029653	707	120
0	1031083	708	145
0	1032730	709	154
0	1034119	710	157
0	1035503	711	129
0	1036882	712	144
0	1037953	713	96
0	1039296	714	126
0	1040803	715	160
0	1042502	716	158
0	1043873	717	126
0	1045646	718	196
0	1047404	719	171
0	1048821	720	159
0	1049970	721	104
0	1051463	722	132
0	1052729	723	115
0	1054109	724	127
0	1055764	725	150
0	1057514	726	173
0	1059002	727	139
0	1060597	728	180
0	1062042	729	128
0	1063782	730	154
0	1065089	731	128
0	1066537	732	117
0	1068036	733	156
0	1069418	734	139
0	1070771	735	126
0	1072488	736	166
0	1073709	737	136
0	1075331	738	137
0	1076568	739	112
0	1078118	740	164
0	1079417	741	108
0	1080693	742	125
0	1082066	743	128
0	1083618	744	147
0	1085168	745	165
0	1086779	746	160
0	1088167	747	133
0	1089746	748	136
0	1091304	749	165
0	1092997	750	171
0	1094547	751	145
0	1096049	752	135
0	1097397	753	129
0	1099054	754	166
0	1100648	755	143
0	1102176	756	149
0	1103724	757	151
0	1105323	758	174
0	1106703	759	135
0	1107961	760	100
0	1109757	761	165
0	1111582	762	192
0	1113207	763	152
0	1114697	764	153
0	1116304	765	172
0	1117963	766	154
0	1118910	767	82
0	1120316	768	131
0	1121849	769	160
0	1123444	770	147
0	1124676	771	127
0	1126201	772	168
0	1127766	773	170
0	1129392	774	145
0	1131126	775	153
0	1132595	776	144
0	1134276	777	174
0	1135802	778	133
0	1137300	779	153
0	1138834	780	156
0	1140540	781	183
0	1141875	782	136
0	1143037	783	107
0	1144238	784	110
0	1145638	785	131
0	1147347	786	156
0	1148898	787	154
0	1150766	788	197
0	1152353	789	152
0	1153787	790	134
0	1155147	791	135
0	1156458	792	132
0	1157819	793	130
0	1159188	794	132
0	1160653	795	156
0	1162114	796	140
0	1163493	797	138
0	1164973	798	145
0	1166649	799	161
0	1168249	800	162
0	1169582	801	132
0	1170766	802	95
0	1172643	803	180
0	1174358	804	186
0	1175522	805	91
0	1177127	806	146
0	1178734	807	158
0	1180352	808	157
0	1181771	809	126
0	1183350	810	151
0	1184946	811	155
0	1186323	812	128
0	1187801	813	133
0	1189422	814	156
0	1190542	815	105
0	1191723	816	112
0	1193335	817	157
0	1194940	818	142
0	1196068	819	105
0	1197689	820	165
0	1199086	821	124
0	1200478	822	129
0	1202212	823	175
0	1203431	824	106
0	1204757	825	117
0	1206198	826	134
0	1207473	827	110
0	1208746	828	124
0	1210422	829	191
0	1211811	830	127
0	1213275	831	143
0	1214698	832	138
0	1216094	833	125
0	1217300	834	127
0	1218476	835	105
0	1220204	836	161
0	1221474	837	119
0	1223398	838	231
0	1224797	839	118
0	1226260	840	149
0	1227472	841	107
0	1229010	842	137
0	1230294	843	111
0	1231919	844	152
0	1233347	845	141
0	1234596	846	112
0	1236381	847	164
0	1237676	848	130
0	1239136	849	137
0	1240467	850	129
0	1241769	851	131
0	1243236	852	136
0	1244768	853	133
0	1246437	854	156
0	1248098	855	150
0	1249453	856	122
0	1250827	857	139
0	1252086	858	112
0	1253683	859	162
0	1255019	860	122
0	1256364	861	120
0	1257848	862	153
0	1259102	863	123
0	1260577	864	148
0	1262275	865	157
0	1263957	866	165
0	1265969	867	203
0	1267571	868	157
0	1269194	869	162
0	1270689	870	165
0	1272239	871	155
0	1273644	872	152
0	1274876	873	133
0	1276272	874	135
0	1277854	875	147
0	1279484	876	151
0	1281227	877	168
0	1282804	878	158
0	1284274	879	121
0	1285711	880	147
0	1287173	881	163
0	1288605	882	121
0	1290126	883	148
0	1291604	884	159
0	1293302	885	167
0	1294745	886	150
0	1295960	887	110
0	1297234	888	127
0	1299196	889	179
0	1300894	890	174
0	1302018	891	105
0	1303152	892	97
0	1304865	893	154
0	1306280	894	158
0	1307790	895	153
0	1309378	896	169
0	1310982	897	165
0	1312501	898	146
0	1314218	899	174
0	1315619	900	127
0	1317187	901	165
0	1318607	902	133
0	1319897	903	131
0	1321354	904	142
0	1322885	905	140
0	1324354	906	144
0	1325778	907	143
0	1327293	908	140
0	1328757	909	141
0	1330206	910	137
0	1331762	911	143
0	1333200	912	135
0	1334665	913	146
0	1336160	914	148
0	1337494	915	111
0	1338631	916	108
0	1340116	917	162
0	1341617	918	132
0	1343100	919	132
0	1344430	920	124
0	1345867	921	134
0	1346977	922	101
0	1348964	923	188
0	1350486	924	127
0	1351739	925	104
0	1353113	926	131
0	1354511	927	111
0	1356054	928	158
0	1357583	929	152
0	1359226	930	159
0	1360348	931	137
0	1362109	932	164
0	1363697	933	161
0	1365110	934	128
0	1366622	935	143
0	1367982	936	129
0	1369375	937	122
0	1370586	938	128
0	1372226	939	159
0	1373803	940	143
0	1375587	941	165
0	1377112	942	148
0	1378466	943	133
0	1380133	944	148
0	1381453	945	113
0	1382963	946	123
0	1384539	947	155
0	1386019	948	145
0	1387610	949	148
0	1388850	950	116
0	1390392	951	147
0	1391859	952	146
0	1393250	953	120
0	1394558	954	111
0	1396252	955	151
0	1397576	956	115
0	1399226	957	153
0	1400802	958	145
0	1402385	959	150
0	1403685	960	136
0	1405266	961	160
0	1406643	962	136
0	1407945	963	119
0	1409327	964	119
0	1410854	965	154
0	1412182	966	127
0	1413771	967	154
0	1415844	968	226
0	1417415	969	156
0	1419014	970	167
0	1420676	971	175
0	1422412	972	167
0	1424066	973	155
0	1425583	974	162
0	1426902	975	124
0	1428214	976	121
0	1429405	977	114
0	1430849	978	149
0	1432143	979	131
0	1433616	980	131
0	1434943	981	114
0	1436297	982	147
0	1437956	983	158
0	1439533	984	140
0	1441187	985	171
0	1442653	986	147
0	1444078	987	124
0	1445680	988	137
0	1447041	989	138
0	1448537	990	144
0	1449799	991	127
0	1451600	992	176
0	1453067	993	148
0	1454862	994	146
0	1456514	995	175
0	1458220	996	165
0	1459677	997	150
0	1461328	998	162
0	1462917	999	172
0	1464342	1000	135
0	1465592	1001	115
0	1467099	1002	138
0	1468328	1003	118
0	1469875	1004	148
0	1471581	1005	169
0	1472953	1006	145
0	1474043	1007	85
0	1475035	1008	85
0	1476415	1009	133
0	1477905	1010	134
0	1479718	1011	190
0	1481267	1012	142
0	1482763	1013	137
0	1484333	1014	155
0	1485809	1015	127
0	1487063	1016	125
0	1488719	1017	195
0	1490408	1018	160
0	1491480	1019	99
0	1492751	1020	125
0	1494427	1021	149
0	1496158	1022	168
0	1497871	1023	166
0	1499282	1024	108
0	1500582	1025	107
0	1501734	1026	111
0	1503211	1027	130
0	1504501	1028	119
0	1505786	1029	128
0	1507455	1030	173
0	1508655	1031	119
0	1510243	1032	147
0	1511800	1033	136
0	1513066	1034	125
0	1514840	1035	187
0	1516358	1036	145
0	1517915	1037	148
0	1519645	1038	173
0	1521055	1039	151
0	1522725	1040	178
0	1523818	1041	92
0	1525271	1042	132
0	1526404	1043	112
0	1527660	1044	101
0	1529116	1045	117
0	1530625	1046	156
0	1531765	1047	105
0	1533034	1048	120
0	1534499	1049	148
0	1535906	1050	139
0	1537256	1051	125
0	1539063	1052	174
0	1540595	1053	127
0	1542018	1054	148
0	1543253	1055	102
0	1544790	1056	148
0	1546138	1057	137
0	1547177	1058	84
0	1548712	1059	146
0	1549844	1060	102
0	1550808	1061	95
0	1551992	1062	107
0	1553318	1063	117
0	1555012	1064	189
0	1556419	1065	138
0	1557791	1066	125
0	1559499	1067	161
0	1560938	1068	134
0	1562410	1069	137
0	1563870	1070	136
0	1565211	1071	120
0	1566506	1072	116
0	1567986	1073	135
0	1569386	1074	121
0	1570957	1075	146
0	1572377	1076	133
0	1573773	1077	153
0	1575234	1078	148
0	1576863	1079	164
0	1578474	1080	145
0	1580025	1081	144
0	1581945	1082	183
0	1583426	1083	140
0	1584889	1084	134
0	1586284	1085	134
0	1587693	1086	148
0	1589428	1087	150
0	1590768	1088	123
0	1592279	1089	156
0	1593819	1090	152
0	1595116	1091	114
0	1596793	1092	162
0	1598119	1093	115
0	1599657	1094	143
0	1601234	1095	152
0	1602977	1096	154
0	1604351	1097	131
0	1605372	1098	88
0	1606824	1099	153
0	1608451	1100	173
0	1609905	1101	147
0	1611545	1102	157
0	1613156	1103	150
0	1614644	1104	153
0	1616066	1105	123
0	1617737	1106	152
0	1619159	1107	133
0	1620738	1108	156
0	1622437	1109	176
0	1624210	1110	155
0	1625813	1111	162
0	1627401	1112	157
0	1628622	1113	102
0	1630168	1114	157
0	1631798	1115	173
0	1633256	1116	135
0	1634758	1117	131
0	1636453	1118	184
0	1638121	1119	151
0	1639734	1120	151
0	1641088	1121	119
0	1642336	1122	117
0	1643755	1123	168
0	1645193	1124	127
0	1646515	1125	139
0	1647786	1126	114
0	1649188	1127	139
0	1650995	1128	182
0	1652352	1129	136
0	1653818	1130	156
0	1655484	1131	165
0	1656568	1132	101
0	1657627	1133	100
0	1659488	1134	194
0	1660956	1135	131
0	1662366	1136	129
0	1663640	1137	119
0	1664886	1138	107
0	1666533	1139	168
0	1668317	1140	178
0	1669692	1141	128
0	1671058	1142	129
0	1672711	1143	148
0	1674091	1144	141
0	1675525	1145	123
0	1676866	1146	130
0	1678112	1147	101
0	1679420	1148	121
0	1680999	1149	144
0	1682638	1150	165
0	1684158	1151	143
0	1685685	1152	136
0	1687473	1153	201
0	1688549	1154	95
0	1690162	1155	160
0	1691722	1156	129
0	1693057	1157	122
0	1694951	1158	193
0	1696538	1159	148
0	1697835	1160	127
0	1699397	1161	143
0	1700755	1162	131
0	1702146	1163	134
0	1703520	1164	131
0	1704869	1165	124
0	1706697	1166	197
0	1708097	1167	145
0	1709669	1168	153
0	1710971	1169	135
0	1712696	1170	167
0	1714005	1171	126
0	1715386	1172	140
0	1716915	1173	144
0	1718429	1174	153
0	1720073	1175	165
0	1721417	1176	105
0	1722830	1177	136
0	1724040	1178	125
0	1725253	1179	128
0	1726678	1180	129
0	1728266	1181	161
0	1729839	1182	140
0	1731064	1183	112
0	1732590	1184	139
0	1734038	1185	133
0	1735558	1186	143
0	1736859	1187	122
0	1738454	1188	150
0	1739634	1189	105
0	1741250	1190	144
0	1742428	1191	105
0	1744100	1192	163
0	1745382	1193	119
0	1746767	1194	128
0	1748241	1195	123
0	1749915	1196	167
0	1751540	1197	158
0	1753154	1198	169
0	1754802	1199	151
0	1756484	1200	144
0	1757733	1201	112
0	1759162	1202	124
0	1760543	1203	144
0	1762329	1204	179
0	1763563	1205	107
0	1764771	1206	105
0	1765934	1207	100
0	1767226	1208	119
0	1768804	1209	151
0	1770179	1210	133
0	1771642	1211	136
0	1772882	1212	119
0	1774140	1213	111
0	1775414	1214	127
0	1776908	1215	155
0	1778137	1216	128
0	1779486	1217	130
0	1780974	1218	139
0	1782073	1219	96
0	1783888	1220	159
0	1785325	1221	138
0	1786656	1222	124
0	1788325	1223	172
0	1789846	1224	148
0	1791158	1225	123
0	1792521	1226	124
0	1793927	1227	137
0	1795657	1228	169
0	1796857	1229	101
0	1798360	1230	149
0	1799899	1231	140
0	1801219	1232	131
0	1802866	1233	172
0	1804262	1234	123
0	1805674	1235	117
0	1807042	1236	125
0	1808775	1237	180
0	1810333	1238	185
0	1812154	1239	186
0	1813705	1240	141
0	1815160	1241	136
0	1817155	1242	210
0	1818727	1243	161
0	1820051	1244	131
0	1821543	1245	133
0	1823003	1246	131
0	1824485	1247	141
0	1826153	1248	147
0	1827704	1249	156
0	1829399	1250	193
0	1830862	1251	134
0	1832319	1252	152
0	1833864	1253	158
0	1835327	1254	124
0	1836915	1255	153
0	1838363	1256	141
0	1839977	1257	157
0	1841236	1258	122
0	1842832	1259	163
0	1844303	1260	165
0	1845440	1261	116
0	1847044	1262	157
0	1848589	1263	144
0	1850205	1264	147
0	1851633	1265	137
0	1853180	1266	164
0	1854630	1267	123
0	1856194	1268	161
0	1857597	1269	134
0	1859129	1270	148
0	1860527	1271	135
0	1861939	1272	137
0	1863296	1273	142
0	1864771	1274	140
0	1866484	1275	156
0	1867983	1276	148
0	1869337	1277	139
0	1870993	1278	181
0	1872393	1279	135
0	1873925	1280	148
0	1874931	1281	83
0	1876579	1282	153
0	1877959	1283	129
0	1879674	1284	162
0	1881299	1285	156
0	1882441	1286	103
0	1883665	1287	117
0	1885191	1288	139
0	1886627	1289	145
0	1887974	1290	123
0	1889512	1291	141
0	1891197	1292	166
0	1892740	1293	148
0	1894136	1294	145
0	1895489	1295	124
0	1896925	1296	141
0	1898195	1297	131
0	1899494	1298	126
0	1900894	1299	133
0	1902250	1300	128
0	1903745	1301	140
0	1904973	1302	123
0	1906206	1303	112
0	1907706	1304	155
0	1909388	1305	165
0	1910963	1306	142
0	1912178	1307	126
0	1913953	1308	168
0	1915580	1309	164
0	1916964	1310	126
0	1918300	1311	117
0	1920017	1312	168
0	1921258	1313	104
0	1922552	1314	109
0	1924002	1315	131
0	1925463	1316	130
0	1927086	1317	140
0	1928539	1318	160
0	1929919	1319	111
0	1931494	1320	143
0	1932911	1321	120
0	1934617	1322	167
0	1935775	1323	111
0	1937461	1324	169
0	1938646	1325	108
0	1939965	1326	138
0	1941570	1327	138
0	1943004	1328	151
0	1944345	1329	142
0	1945800	1330	127
0	1947263	1331	162
0	1948582	1332	132
0	1950107	1333	154
0	1951706	1334	158
0	1952972	1335	125
0	1954507	1336	146
0	1955608	1337	102
0	1957096	1338	167
0	1958742	1339	161
0	1960247	1340	151
0	1961843	1341	155
0	1963188	1342	126
0	1964752	1343	153
0	1966195	1344	156
0	1967514	1345	120
0	1969294	1346	193
0	1970910	1347	159
0	1972417	1348	164
0	1974339	1349	199
0	1976199	1350	180
0	1977738	1351	158
0	1979054	1352	119
0	1980477	1353	140
0	1982459	1354	203
0	1983909	1355	135
0	1985697	1356	173
0	1987489	1357	173
0	1989082	1358	152
0	1990218	1359	95
0	1991769	1360	163
0	1993260	1361	136
0	1994705	1362	138
0	1996223	1363	137
0	1997720	1364	154
0	1999040	1365	125
0	2000176	1366	99
0	2001531	1367	120
0	2002917	1368	155
0	2004337	1369	133
0	2006031	1370	170
0	2007389	1371	131
0	2009033	1372	163
0	2010302	1373	122
0	2011787	1374	154
0	2013352	1375	150
0	2014888	1376	155
0	2016671	1377	168
0	2017874	1378	110
0	2019415	1379	140
0	2020937	1380	138
0	2022075	1381	101
0	2023301	1382	105
0	2024736	1383	136
0	2026308	1384	151
0	2027946	1385	167
0	2029336	1386	139
0	2030957	1387	158
0	2032191	1388	105
0	2033511	1389	141
0	2034938	1390	137
0	2036358	1391	133
0	2037704	1392	133
0	2039039	1393	108
0	2040380	1394	128
0	2041662	1395	117
0	2043253	1396	162
0	2044471	1397	115
0	2045808	1398	122
0	2047277	1399	132
0	2048849	1400	138
0	2050378	1401	158
0	2051609	1402	122
0	2053353	1403	181
0	2054928	1404	150
0	2056031	1405	98
0	2057750	1406	172
0	2058983	1407	122
0	2060525	1408	145
0	2061862	1409	138
0	2063200	1410	118
0	2064572	1411	117
0	2065909	1412	142
0	2067344	1413	148
0	2068591	1414	110
0	2069981	1415	129
0	2071475	1416	125
0	2072946	1417	154
0	2074601	1418	166
0	2076065	1419	149
0	2077639	1420	160
0	2079211	1421	147
0	2080617	1422	161
0	2082172	1423	140
0	2083705	1424	140
0	2085635	1425	201
0	2086782	1426	104
0	2088066	1427	133
0	2089529	1428	134
0	2090980	1429	138
0	2092273	1430	121
0	2093585	1431	139
0	2095304	1432	156
0	2096503	1433	120
0	2098160	1434	172
0	2099664	1435	141
0	2101119	1436	138
0	2102928	1437	184
0	2104812	1438	207
0	2106472	1439	147
0	2107674	1440	106
0	2108922	1441	121
0	2110244	1442	133
0	2111486	1443	97
0	2112866	1444	127
0	2114306	1445	151
0	2115794	1446	139
0	2117186	1447	135
0	2118590	1448	129
0	2120336	1449	175
0	2121895	1450	141
0	2123425	1451	149
0	2124713	1452	119
0	2126214	1453	138
0	2128030	1454	171
0	2129154	1455	105
0	2130787	1456	142
0	2132557	1457	173
0	2133557	1458	103
0	2135026	1459	138
0	2136358	1460	116
0	2137669	1461	122
0	2138941	1462	133
0	2140281	1463	109
0	2141549	1464	129
0	2143093	1465	153
0	2144887	1466	181
0	2146199	1467	115
0	2147631	1468	139
0	2149103	1469	131
0	2150352	1470	115
0	2151989	1471	156
0	2153155	1472	113
0	2154480	1473	130
0	2156142	1474	155
0	2157361	1475	110
0	2158492	1476	90
0	2159918	1477	139
0	2161060	1478	103
0	2162739	1479	176
0	2164219	1480	150
0	2165514	1481	138
0	2167332	1482	187
0	2168522	1483	107
0	2169705	1484	110
0	2170964	1485	118
0	2172183	1486	108
0	2173616	1487	114
0	2174952	1488	135
0	2176820	1489	171
0	2178555	1490	179
0	2180254	1491	146
0	2181689	1492	144
0	2183209	1493	147
0	2184628	1494	144
0	2185976	1495	143
0	2187460	1496	127
0	2188884	1497	145
0	2190462	1498	151
0	2191966	1499	149
0	2193405	1500	137
0	2194746	1501	120
0	2196090	1502	121
0	2197502	1503	137
0	2199073	1504	152
0	2200326	1505	118
0	2201687	1506	116
0	2202996	1507	122
0	2204550	1508	169
0	2206015	1509	146
0	2207434	1510	131
0	2208756	1511	111
0	2209935	1512	120
0	2211324	1513	132
0	2212902	1514	169
0	2214497	1515	158
0	2215837	1516	119
0	2217431	1517	171
0	2219098	1518	156
0	2220465	1519	120
0	2221893	1520	138
0	2223913	1521	211
0	2225284	1522	130
0	2226827	1523	152
0	2228281	1524	131
0	2229885	1525	165
0	2231439	1526	155
0	2233018	1527	146
0	2234648	1528	161
0	2235774	1529	117
0	2237147	1530	123
0	2238872	1531	168
0	2240217	1532	130
0	2241898	1533	136
0	2243255	1534	122
0	2244667	1535	127
0	2246332	1536	186
0	2248026	1537	169
0	2249586	1538	135
0	2250874	1539	117
0	2252329	1540	141
0	2253880	1541	142
0	2255194	1542	115
0	2256599	1543	128
0	2258221	1544	167
0	2259891	1545	179
0	2261128	1546	122
0	2262147	1547	104
0	2263654	1548	142
0	2265459	1549	196
0	2266852	1550	137
0	2268572	1551	161
0	2269969	1552	134
0	2271660	1553	158
0	2273006	1554	131
0	2274529	1555	146
0	2276096	1556	128
0	2277367	1557	124
0	2278874	1558	130
0	2280585	1559	182
0	2281968	1560	131
0	2283307	1561	128
0	2284866	1562	138
0	2286050	1563	105
0	2287613	1564	126
0	2289011	1565	129
0	2290609	1566	145
0	2291976	1567	118
0	2293489	1568	124
0	2294749	1569	117
0	2296276	1570	143
0	2298061	1571	166
0	2299224	1572	112
0	2300573	1573	126
0	2302023	1574	145
0	2303514	1575	146
0	2304803	1576	114
0	2306173	1577	139
0	2307578	1578	126
0	2309223	1579	166
0	2310873	1580	150
0	2312240	1581	140
0	2313682	1582	149
0	2315006	1583	123
0	2316794	1584	163
0	2318293	1585	158
0	2319642	1586	132
0	2320993	1587	122
0	2322269	1588	121
0	2324093	1589	181
0	2325313	1590	108
0	2326607	1591	115
0	2328183	1592	163
0	2329693	1593	153
0	2330855	1594	115
0	2332360	1595	160
0	2333614	1596	127
0	2335038	1597	131
0	2336540	1598	137
0	2337900	1599	139
0	2339555	1600	145
0	2341129	1601	153
0	2342549	1602	125
0	2344088	1603	142
0	2345348	1604	117
0	2347032	1605	169
0	2348560	1606	165
0	2349697	1607	102
0	2350838	1608	100
0	2352199	1609	130
0	2353919	1610	170
0	2355274	1611	128
0	2356746	1612	137
0	2358267	1613	144
0	2359732	1614	128