version 3
run SimulationTime-330-20240107-16:19:04-21484
attr configname SimulationTime
attr datetime 20240107-16:19:04
attr datetimef 20240107-161904
attr experiment SimulationTime
attr inifile omnetpp.ini
attr iterationvars ""
attr iterationvarsd ""
attr iterationvarsf ""
attr measurement ""
attr network System
attr processid 21484
attr repetition 330
attr replication #330
attr resultdir results
attr runnumber 330
attr seedset 330
config **.cpu.rate 1000
config **.hd.rateProcessing 250
config **.webServer.web_server_rate 100
config **.p1 0.35
config **.p2 0.40
config network System
config num-rngs 4
config **.cpu.rng-0 0
config **.cpu.rng-1 1
config **.hd.rng-0 2
config **.webServer.rng-0 3
config repeat 500
config seed-set 330
config sim-time-limit 10000s
config **.client.numClients 40

vector 0 System.server.cpu requestCounterStat:vector ETV
attr recordingmode vector
attr source requestCounter
vector 1 System.server.hd utilizationHdStat:vector ETV
attr recordingmode vector
attr source utilizationHd
vector 2 System.server.cpu utilizationCpuStat:vector ETV
attr recordingmode vector
attr source utilizationCpu
vector 3 System.webServer utilizationWsStat:vector ETV
attr recordingmode vector
attr source utilizationWs
0	2054	1	201
0	3393	2	128
0	4681	3	123
0	6147	4	149
0	7341	5	103
0	9019	6	175
0	10007	7	89
0	11432	8	136
0	12987	9	142
0	14698	10	175
0	16052	11	137
0	17297	12	104
0	18703	13	133
0	20396	14	180
0	21653	15	104
0	23175	16	155
0	24388	17	110
0	25746	18	129
0	27300	19	147
0	29016	20	158
0	30268	21	125
0	31596	22	119
0	33192	23	169
0	34856	24	163
0	36290	25	119
0	37671	26	112
0	39034	27	124
0	40601	28	160
0	42251	29	177
0	44106	30	175
0	45519	31	128
0	47557	32	227
0	49272	33	162
0	50799	34	158
0	52492	35	176
0	53830	36	129
0	55103	37	120
0	56769	38	189
0	58166	39	124
0	59611	40	133
0	60786	41	84
0	62347	42	160
0	63599	43	121
0	65208	44	160
0	66956	45	181
0	68249	46	112
0	69462	47	98
0	71059	48	154
0	72341	49	123
0	73984	50	173
0	75360	51	117
0	77334	52	201
0	78776	53	145
0	80056	54	127
0	81074	55	93
0	82460	56	115
0	84110	57	177
0	85564	58	137
0	87153	59	158
0	88545	60	126
0	90034	61	152
0	91554	62	153
0	92939	63	124
0	94445	64	133
0	95878	65	142
0	97492	66	183
0	98734	67	121
0	100040	68	133
0	101480	69	149
0	102929	70	159
0	104429	71	149
0	106040	72	150
0	107519	73	154
0	108992	74	132
0	110514	75	131
0	112289	76	184
0	113960	77	140
0	115139	78	110
0	116687	79	155
0	117805	80	118
0	119188	81	116
0	120481	82	124
0	121962	83	132
0	123090	84	105
0	124445	85	114
0	126101	86	147
0	127619	87	157
0	129047	88	119
0	130244	89	122
0	131641	90	147
0	133458	91	192
0	135144	92	151
0	136541	93	136
0	138258	94	170
0	139690	95	133
0	141006	96	117
0	142239	97	118
0	143464	98	104
0	144921	99	142
0	146087	100	118
0	147637	101	143
0	149330	102	178
0	150785	103	146
0	152460	104	168
0	153915	105	124
0	155084	106	116
0	156656	107	161
0	158362	108	145
0	159721	109	122
0	161170	110	129
0	162324	111	99
0	164008	112	149
0	165433	113	142
0	166963	114	147
0	168296	115	126
0	169487	116	108
0	170778	117	112
0	172454	118	165
0	173993	119	146
0	175386	120	127
0	177135	121	180
0	178570	122	134
0	180380	123	183
0	182280	124	193
0	183628	125	117
0	185063	126	158
0	186713	127	147
0	188247	128	143
0	189760	129	140
0	191559	130	185
0	193145	131	147
0	195211	132	219
0	196752	133	128
0	198356	134	151
0	199773	135	116
0	201035	136	121
0	202382	137	138
0	204021	138	156
0	205292	139	132
0	206915	140	145
0	208390	141	140
0	209761	142	128
0	211401	143	157
0	212761	144	153
0	214089	145	137
0	215650	146	136
0	217242	147	157
0	218372	148	105
0	220215	149	176
0	221739	150	140
0	223261	151	143
0	224626	152	138
0	226116	153	153
0	227328	154	95
0	229101	155	158
0	230635	156	173
0	232505	157	189
0	233989	158	153
0	235214	159	104
0	236572	160	126
0	237994	161	139
0	239686	162	151
0	240926	163	121
0	242603	164	182
0	243969	165	139
0	245413	166	145
0	247077	167	155
0	248448	168	116
0	249925	169	132
0	251705	170	170
0	253527	171	189
0	255232	172	178
0	256643	173	128
0	257871	174	121
0	259398	175	142
0	261050	176	147
0	262261	177	120
0	263627	178	115
0	265020	179	116
0	266399	180	137
0	267883	181	145
0	269445	182	157
0	271067	183	153
0	272373	184	111
0	273479	185	107
0	275229	186	159
0	276549	187	117
0	277990	188	136
0	279511	189	140
0	280889	190	118
0	282014	191	104
0	283598	192	147
0	285209	193	162
0	286764	194	148
0	288543	195	170
0	289780	196	112
0	291386	197	145
0	292866	198	135
0	294674	199	187
0	296222	200	130
0	297898	201	165
0	299718	202	181
0	301378	203	147
0	302676	204	141
0	304272	205	169
0	305659	206	130
0	306817	207	107
0	308405	208	163
0	310115	209	161
0	311373	210	106
0	312798	211	148
0	314037	212	108
0	315320	213	128
0	316721	214	120
0	318543	215	187
0	320161	216	159
0	321637	217	139
0	322913	218	119
0	324564	219	162
0	325960	220	144
0	327314	221	111
0	328934	222	163
0	330458	223	143
0	331932	224	135
0	333091	225	110
0	334779	226	157
0	336521	227	165
0	337737	228	115
0	339190	229	144
0	340322	230	84
0	341743	231	128
0	343322	232	150
0	344729	233	150
0	346183	234	135
0	347544	235	128
0	349109	236	156
0	350427	237	123
0	351696	238	120
0	353329	239	152
0	354859	240	146
0	356350	241	130
0	357740	242	129
0	359205	243	162
0	360552	244	130
0	362020	245	137
0	363599	246	158
0	365398	247	178
0	366873	248	130
0	368123	249	113
0	369597	250	132
0	371216	251	154
0	372752	252	141
0	374130	253	139
0	375861	254	166
0	377293	255	141
0	378740	256	132
0	380252	257	131
0	381698	258	147
0	383069	259	126
0	384747	260	158
0	386535	261	175
0	388134	262	150
0	389704	263	145
0	390866	264	99
0	392330	265	125
0	393561	266	90
0	395155	267	143
0	396761	268	147
0	398200	269	146
0	399622	270	122
0	401350	271	165
0	402627	272	130
0	403809	273	91
0	405702	274	206
0	407154	275	137
0	408384	276	113
0	409680	277	115
0	411183	278	146
0	412714	279	138
0	414024	280	114
0	415459	281	138
0	416838	282	120
0	418226	283	123
0	419605	284	126
0	421171	285	141
0	422464	286	110
0	423616	287	105
0	425176	288	141
0	426854	289	179
0	428393	290	159
0	430079	291	153
0	431737	292	175
0	433207	293	127
0	434447	294	125
0	435790	295	138
0	437300	296	139
0	438942	297	159
0	440885	298	204
0	442457	299	163
0	443956	300	145
0	445309	301	112
0	446729	302	153
0	448239	303	147
0	449627	304	149
0	450962	305	118
0	452197	306	114
0	453350	307	96
0	454389	308	98
0	455631	309	105
0	456812	310	123
0	458021	311	102
0	459343	312	117
0	461053	313	155
0	462435	314	127
0	463676	315	100
0	465016	316	115
0	466272	317	117
0	467519	318	106
0	469069	319	157
0	470592	320	127
0	471925	321	144
0	473325	322	149
0	474578	323	128
0	475835	324	116
0	477077	325	111
0	478377	326	133
0	479813	327	125
0	481419	328	179
0	483066	329	158
0	484671	330	153
0	486414	331	162
0	488135	332	170
0	489596	333	150
0	491278	334	185
0	492783	335	142
0	494413	336	157
0	495732	337	134
0	497255	338	130
0	498746	339	154
0	499867	340	107
0	501427	341	145
0	502953	342	155
0	504455	343	151
0	505998	344	142
0	507613	345	160
0	508952	346	136
0	510336	347	141
0	511709	348	136
0	513068	349	112
0	515034	350	196
0	516471	351	132
0	517887	352	139
0	519203	353	105
0	521195	354	203
0	522474	355	126
0	524006	356	141
0	525068	357	93
0	526765	358	160
0	528104	359	144
0	529336	360	116
0	530587	361	110
0	531942	362	144
0	533534	363	155
0	534756	364	107
0	536361	365	148
0	537944	366	154
0	539352	367	127
0	540790	368	125
0	542516	369	179
0	544218	370	178
0	545574	371	117
0	546776	372	127
0	548070	373	115
0	549581	374	148
0	551155	375	151
0	552440	376	112
0	553797	377	136
0	555350	378	138
0	556710	379	127
0	558631	380	197
0	559979	381	133
0	561729	382	169
0	563539	383	177
0	565366	384	194
0	566838	385	129
0	568422	386	147
0	569976	387	169
0	571633	388	156
0	573509	389	185
0	574952	390	129
0	576188	391	121
0	577997	392	152
0	579563	393	151
0	580875	394	135
0	582488	395	140
0	583886	396	145
0	585663	397	152
0	587130	398	144
0	588384	399	125
0	589815	400	137
0	591498	401	182
0	593190	402	163
0	594362	403	119
0	595946	404	153
0	597265	405	116
0	598662	406	126
0	599923	407	116
0	601435	408	141
0	602919	409	141
0	604595	410	128
0	605730	411	114
0	607514	412	173
0	608899	413	136
0	610257	414	125
0	611904	415	168
0	613397	416	152
0	614862	417	132
0	616528	418	173
0	617928	419	115
0	619138	420	106
0	620627	421	154
0	622226	422	144
0	623707	423	122
0	625050	424	110
0	626239	425	110
0	627654	426	140
0	629150	427	137
0	630826	428	175
0	632590	429	177
0	633991	430	139
0	635721	431	183
0	637120	432	134
0	638602	433	133
0	640130	434	123
0	641572	435	143
0	643319	436	170
0	645153	437	167
0	646481	438	117
0	648089	439	151
0	649438	440	113
0	650610	441	113
0	652071	442	140
0	653713	443	159
0	655309	444	177
0	656872	445	138
0	658196	446	109
0	659681	447	140
0	660985	448	113
0	662961	449	199
0	664324	450	125
0	665854	451	139
0	667260	452	145
0	668611	453	132
0	670101	454	141
0	671625	455	131
0	673062	456	140
0	674268	457	121
0	675633	458	126
0	676978	459	108
0	678085	460	103
0	679648	461	138
0	681024	462	145
0	682448	463	157
0	683916	464	157
0	685096	465	105
0	686562	466	127
0	687941	467	138
0	689397	468	131
0	690895	469	153
0	692461	470	154
0	694085	471	159
0	695319	472	113
0	696768	473	136
0	698381	474	148
0	699864	475	140
0	701447	476	146
0	703040	477	146
0	704454	478	127
0	705726	479	129
0	707278	480	156
0	708471	481	108
0	709978	482	152
0	711207	483	96
0	712517	484	127
0	713859	485	129
0	715094	486	128
0	716444	487	135
0	717626	488	111
0	718743	489	110
0	720200	490	149
0	721348	491	117
0	722596	492	119
0	723746	493	111
0	725254	494	151
0	726533	495	126
0	728054	496	136
0	729525	497	130
0	730918	498	144
0	732176	499	133
0	733468	500	112
0	735096	501	149
0	736621	502	144
0	737802	503	116
0	739381	504	150
0	740766	505	136
0	742270	506	137
0	743393	507	90
0	744617	508	103
0	746081	509	149
0	747940	510	183
0	749265	511	120
0	750538	512	128
0	752092	513	151
0	753434	514	121
0	754953	515	128
0	756441	516	125
0	757694	517	100
0	759612	518	209
0	761237	519	168
0	762677	520	138
0	764136	521	142
0	765608	522	143
0	767457	523	194
0	768698	524	120
0	769981	525	110
0	771574	526	132
0	773534	527	181
0	774643	528	116
0	775783	529	121
0	777016	530	127
0	778690	531	151
0	779959	532	120
0	781634	533	174
0	783131	534	160
0	784845	535	171
0	786131	536	123
0	787468	537	128
0	788828	538	133
0	790260	539	151
0	791599	540	113
0	792882	541	136
0	794037	542	98
0	795449	543	121
0	796730	544	108
0	798295	545	150
0	799813	546	153
0	801232	547	130
0	802947	548	170
0	804334	549	138
0	805635	550	133
0	807164	551	146
0	808538	552	115
0	809963	553	130
0	811609	554	147
0	813157	555	145
0	814802	556	162
0	816104	557	119
0	817713	558	152
0	819234	559	134
0	820881	560	171
0	822713	561	173
0	824297	562	177
0	825551	563	107
0	826713	564	115
0	827829	565	105
0	829225	566	137
0	830662	567	112
0	831874	568	117
0	833190	569	139
0	835059	570	187
0	836734	571	166
0	838200	572	117
0	839354	573	115
0	840789	574	132
0	842321	575	135
0	843798	576	136
0	845579	577	178
0	847016	578	146
0	848383	579	128
0	849820	580	149
0	851045	581	112
0	852498	582	134
0	853691	583	102
0	854910	584	114
0	856492	585	143
0	857988	586	139
0	859521	587	130
0	861028	588	132
0	862491	589	140
0	864078	590	145
0	865870	591	173
0	867196	592	127
0	868555	593	138
0	870041	594	139
0	871204	595	98
0	872422	596	97
0	874066	597	139
0	875648	598	159
0	877166	599	137
0	878788	600	166
0	880248	601	141
0	882052	602	171
0	883726	603	165
0	885022	604	123
0	886473	605	142
0	887891	606	137
0	889548	607	146
0	891659	608	230
0	892952	609	106
0	894268	610	138
0	896017	611	164
0	897304	612	140
0	899155	613	190
0	900620	614	128
0	902432	615	191
0	903927	616	162
0	905509	617	155
0	906800	618	110
0	908247	619	128
0	909962	620	167
0	911404	621	139
0	913008	622	151
0	914512	623	147
0	915784	624	123
0	917349	625	154
0	918740	626	134
0	920184	627	141
0	921601	628	122
0	923003	629	131
0	924506	630	145
0	925802	631	123
0	927079	632	122
0	928353	633	109
0	929711	634	127
0	930893	635	111
0	932278	636	130
0	933936	637	177
0	935269	638	130
0	936600	639	106
0	938089	640	141
0	939582	641	134
0	941530	642	227
0	942783	643	128
0	944402	644	150
0	946107	645	164
0	947499	646	145
0	948870	647	148
0	950051	648	128
0	951499	649	149
0	953482	650	199
0	955100	651	143
0	956296	652	101
0	957625	653	122
0	959127	654	147
0	960229	655	101
0	961621	656	129
0	963010	657	144
0	964293	658	130
0	965702	659	146
0	967488	660	172
0	969101	661	170
0	970403	662	121
0	971869	663	143
0	973200	664	138
0	974551	665	134
0	976029	666	127
0	977641	667	161
0	978934	668	136
0	980296	669	133
0	981613	670	131
0	982746	671	98
0	984336	672	163
0	985684	673	117
0	987182	674	139
0	988689	675	158
0	990355	676	171
0	992273	677	167
0	993437	678	115
0	995156	679	152
0	996260	680	104
0	997652	681	133
0	999166	682	159
0	1000624	683	135
0	1001897	684	120
0	1003480	685	152
0	1004983	686	144
0	1006124	687	106
0	1007497	688	126
0	1008934	689	136
0	1010440	690	142
0	1012192	691	181
0	1013748	692	169
0	1014882	693	111
0	1016197	694	124
0	1017796	695	142
0	1019339	696	138
0	1020772	697	144
0	1022423	698	172
0	1023739	699	137
0	1025040	700	91
0	1026380	701	137
0	1027924	702	137
0	1029413	703	156
0	1030963	704	143
0	1032625	705	191
0	1034172	706	138
0	1035562	707	123
0	1037177	708	146
0	1038316	709	114
0	1040203	710	177
0	1041661	711	119
0	1043025	712	119
0	1044438	713	162
0	1046027	714	150
0	1047521	715	139
0	1048804	716	124
0	1049983	717	106
0	1051608	718	152
0	1053092	719	141
0	1054660	720	160
0	1056060	721	129
0	1057858	722	195
0	1059346	723	157
0	1060960	724	157
0	1062458	725	157
0	1063893	726	130
0	1065229	727	117
0	1066515	728	117
0	1068165	729	165
0	1069587	730	126
0	1070843	731	127
0	1072438	732	156
0	1074050	733	149
0	1075803	734	190
0	1077367	735	161
0	1078909	736	145
0	1080704	737	174
0	1082310	738	149
0	1083842	739	167
0	1085260	740	136
0	1086559	741	124
0	1087860	742	120
0	1089327	743	138
0	1090653	744	123
0	1092125	745	141
0	1093251	746	91
0	1094634	747	128
0	1096186	748	159
0	1097929	749	158
0	1099367	750	124
0	1100873	751	155
0	1102122	752	108
0	1103735	753	162
0	1105064	754	128
0	1106551	755	162
0	1107881	756	131
0	1109293	757	137
0	1111087	758	165
0	1112489	759	125
0	1113837	760	130
0	1115478	761	148
0	1117141	762	172
0	1118819	763	175
0	1120325	764	147
0	1121802	765	120
0	1123421	766	152
0	1124887	767	113
0	1125931	768	77
0	1127376	769	120
0	1128703	770	121
0	1130233	771	139
0	1131581	772	125
0	1132994	773	146
0	1134363	774	134
0	1135823	775	137
0	1137392	776	140
0	1138664	777	109
0	1140195	778	170
0	1141744	779	152
0	1143182	780	126
0	1144363	781	108
0	1145609	782	123
0	1146697	783	105
0	1148365	784	153
0	1150058	785	174
0	1151586	786	153
0	1153187	787	146
0	1154095	788	81
0	1155716	789	146
0	1157271	790	157
0	1158616	791	136
0	1160229	792	166
0	1161639	793	135
0	1163240	794	180
0	1164441	795	110
0	1165935	796	157
0	1167099	797	101
0	1168410	798	122
0	1169926	799	145
0	1171626	800	168
0	1173150	801	149
0	1174457	802	122
0	1176063	803	167
0	1177445	804	143
0	1179130	805	168
0	1180607	806	152
0	1182132	807	132
0	1183651	808	148
0	1185317	809	169
0	1187114	810	159
0	1188590	811	121
0	1189797	812	100
0	1191292	813	140
0	1192718	814	137
0	1194398	815	165
0	1195968	816	147
0	1197417	817	146
0	1198681	818	123
0	1200180	819	128
0	1201771	820	153
0	1202937	821	103
0	1204272	822	116
0	1205758	823	147
0	1207460	824	175
0	1208836	825	131
0	1210134	826	119
0	1211368	827	131
0	1212590	828	115
0	1213839	829	112
0	1215199	830	138
0	1216271	831	95
0	1217875	832	153
0	1219318	833	122
0	1220614	834	113
0	1222078	835	127
0	1223663	836	164
0	1224800	837	102
0	1226040	838	111
0	1227542	839	133
0	1228926	840	126
0	1230518	841	159
0	1231904	842	139
0	1233312	843	127
0	1234818	844	153
0	1236319	845	136
0	1238356	846	204
0	1239637	847	112
0	1241244	848	138
0	1242448	849	121
0	1243757	850	133
0	1245027	851	131
0	1246548	852	162
0	1248326	853	171
0	1249897	854	156
0	1251543	855	165
0	1253174	856	158
0	1254453	857	114
0	1255717	858	133
0	1257173	859	149
0	1258611	860	140
0	1259881	861	119
0	1261395	862	139
0	1263003	863	163
0	1264483	864	143
0	1265830	865	134
0	1267081	866	112
0	1268784	867	150
0	1270295	868	138
0	1271479	869	105
0	1272866	870	129
0	1274597	871	154
0	1275984	872	120
0	1277279	873	120
0	1278823	874	157
0	1280194	875	142
0	1281415	876	108
0	1282930	877	158
0	1284433	878	130
0	1286040	879	150
0	1287550	880	142
0	1289089	881	134
0	1290738	882	160
0	1291924	883	113
0	1293224	884	117
0	1294625	885	134
0	1296206	886	148
0	1297739	887	148
0	1299243	888	153
0	1300720	889	152
0	1302485	890	159
0	1303835	891	111
0	1305520	892	160
0	1307142	893	161
0	1308295	894	106
0	1309815	895	143
0	1311206	896	140
0	1312922	897	177
0	1314088	898	99
0	1315367	899	122
0	1316434	900	99
0	1318060	901	173
0	1319171	902	108
0	1320777	903	157
0	1322047	904	107
0	1323667	905	131
0	1325215	906	155
0	1326337	907	107
0	1327868	908	134
0	1329564	909	175
0	1330912	910	136
0	1332704	911	195
0	1334368	912	157
0	1335810	913	131
0	1337039	914	86
0	1338417	915	129
0	1339726	916	112
0	1341094	917	121
0	1342479	918	134
0	1344152	919	152
0	1345340	920	104
0	1346685	921	118
0	1348026	922	124
0	1349681	923	156
0	1351154	924	122
0	1352711	925	156
0	1354096	926	132
0	1355577	927	136
0	1357072	928	154
0	1358346	929	111
0	1359976	930	162
0	1361330	931	131
0	1362361	932	86
0	1363920	933	136
0	1365352	934	151
0	1366980	935	161
0	1368408	936	143
0	1369555	937	108
0	1370975	938	143
0	1372532	939	156
0	1373959	940	139
0	1375387	941	137
0	1376975	942	155
0	1378349	943	141
0	1379790	944	136
0	1381115	945	132
0	1382581	946	139
0	1383684	947	102
0	1384948	948	113
0	1386301	949	140
0	1387882	950	157
0	1389126	951	119
0	1391115	952	198
0	1392727	953	179
0	1394266	954	146
0	1395640	955	131
0	1397258	956	169
0	1398870	957	157
0	1400479	958	158
0	1401735	959	109
0	1403214	960	153
0	1404744	961	159
0	1406081	962	112
0	1407334	963	102
0	1408939	964	144
0	1410235	965	113
0	1411514	966	124
0	1412934	967	137
0	1414833	968	184
0	1416495	969	151
0	1417977	970	138
0	1419534	971	150
0	1420887	972	124
0	1422328	973	144
0	1423817	974	128
0	1424845	975	93
0	1426363	976	159
0	1427765	977	131
0	1429334	978	146
0	1430603	979	134
0	1432166	980	151
0	1433697	981	116
0	1435208	982	142
0	1436560	983	133
0	1437939	984	122
0	1439325	985	139
0	1440668	986	130
0	1441980	987	129
0	1443484	988	157
0	1445225	989	170
0	1446933	990	160
0	1448455	991	153
0	1449688	992	114
0	1451107	993	140
0	1452519	994	133
0	1453799	995	129
0	1455030	996	130
0	1456545	997	130
0	1457720	998	114
0	1459047	999	118
0	1460759	1000	172
0	1462380	1001	148
0	1464219	1002	188
0	1465637	1003	135
0	1466914	1004	116
0	1468681	1005	172
0	1470063	1006	123
0	1471771	1007	173
0	1473171	1008	135
0	1474650	1009	140
0	1476288	1010	154
0	1477525	1011	112
0	1479100	1012	148
0	1480682	1013	157
0	1481814	1014	101
0	1482811	1015	84
0	1484087	1016	125
0	1485474	1017	130
0	1486970	1018	133
0	1488523	1019	152
0	1490110	1020	143
0	1491654	1021	133
0	1493167	1022	150
0	1494769	1023	149
0	1496439	1024	179
0	1497556	1025	102
0	1499106	1026	149
0	1500595	1027	142
0	1502099	1028	137
0	1503609	1029	129
0	1505041	1030	148
0	1506232	1031	110
0	1507748	1032	147
0	1509394	1033	151
0	1510792	1034	121
0	1512371	1035	160
0	1513844	1036	136
0	1515493	1037	164
0	1517267	1038	177
0	1518504	1039	110
0	1520205	1040	171
0	1521484	1041	122
0	1522913	1042	126
0	1524506	1043	154
0	1525851	1044	142
0	1527292	1045	122
0	1528507	1046	110
0	1529879	1047	129
0	1531628	1048	166
0	1532898	1049	117
0	1534487	1050	165
0	1535701	1051	117
0	1536974	1052	100
0	1538192	1053	107
0	1539652	1054	149
0	1540963	1055	108
0	1542474	1056	162
0	1543782	1057	115
0	1545141	1058	148
0	1546671	1059	173
0	1547841	1060	100
0	1549435	1061	163
0	1551100	1062	152
0	1552721	1063	158
0	1554177	1064	129
0	1555573	1065	151
0	1557558	1066	196
0	1559257	1067	152
0	1560953	1068	153
0	1562516	1069	164
0	1564243	1070	163
0	1565679	1071	137
0	1567044	1072	124
0	1568560	1073	121
0	1570201	1074	160
0	1571547	1075	115
0	1572573	1076	87
0	1574054	1077	142
0	1575383	1078	114
0	1576993	1079	165
0	1578620	1080	145
0	1579850	1081	117
0	1580836	1082	95
0	1582139	1083	116
0	1583757	1084	173
0	1585065	1085	121
0	1586553	1086	161
0	1587887	1087	127
0	1589543	1088	171
0	1591070	1089	152
0	1592609	1090	149
0	1594080	1091	148
0	1595410	1092	125
0	1596613	1093	106
0	1597975	1094	121
0	1599437	1095	149
0	1600953	1096	155
0	1602678	1097	180
0	1604207	1098	150
0	1605729	1099	151
0	1607211	1100	144
0	1608505	1101	117
0	1610216	1102	170
0	1611883	1103	174
0	1613094	1104	96
0	1614473	1105	146
0	1615817	1106	137
0	1617327	1107	143
0	1618694	1108	136
0	1620139	1109	136
0	1621860	1110	159
0	1623359	1111	150
0	1624819	1112	141
0	1626208	1113	128
0	1627615	1114	150
0	1629200	1115	148
0	1630654	1116	139
0	1632615	1117	192
0	1633779	1118	85
0	1635234	1119	124
0	1636649	1120	153
0	1638212	1121	140
0	1639757	1122	148
0	1641310	1123	160
0	1642701	1124	150
0	1644244	1125	164
0	1645543	1126	116
0	1647177	1127	177
0	1648849	1128	175
0	1650199	1129	143
0	1651597	1130	142
0	1652888	1131	122
0	1654448	1132	153
0	1656155	1133	162
0	1657415	1134	113
0	1658893	1135	127
0	1659988	1136	98
0	1661251	1137	118
0	1662892	1138	158
0	1664417	1139	138
0	1665894	1140	155
0	1667466	1141	157
0	1668917	1142	142
0	1670517	1143	163
0	1672136	1144	160
0	1674071	1145	204
0	1675859	1146	171
0	1677325	1147	139
0	1678890	1148	160
0	1680376	1149	151
0	1681742	1150	146
0	1682936	1151	101
0	1684059	1152	108
0	1685460	1153	116
0	1686707	1154	124
0	1687995	1155	123
0	1689779	1156	169
0	1691663	1157	185
0	1693056	1158	128
0	1694660	1159	161
0	1696033	1160	131
0	1697346	1161	140
0	1698510	1162	117
0	1700060	1163	145
0	1701632	1164	143
0	1703182	1165	149
0	1704478	1166	111
0	1706179	1167	184
0	1707775	1168	161
0	1709348	1169	166
0	1710911	1170	147
0	1712251	1171	125
0	1713605	1172	117
0	1715265	1173	147
0	1716520	1174	114
0	1718038	1175	153
0	1719596	1176	153
0	1721163	1177	144
0	1722674	1178	148
0	1724227	1179	140
0	1725595	1180	132
0	1726875	1181	109
0	1728478	1182	162
0	1730265	1183	176
0	1731745	1184	137
0	1733092	1185	122
0	1734705	1186	158
0	1735961	1187	115
0	1737659	1188	161
0	1739068	1189	142
0	1740444	1190	150
0	1741619	1191	108
0	1743237	1192	149
0	1744779	1193	143
0	1746123	1194	111
0	1747895	1195	167
0	1749227	1196	119
0	1750647	1197	135
0	1752406	1198	170
0	1753687	1199	132
0	1754994	1200	121
0	1756402	1201	129
0	1757874	1202	119
0	1759193	1203	118
0	1760401	1204	115
0	1761818	1205	142
0	1762798	1206	79
0	1764278	1207	135
0	1765515	1208	112
0	1767148	1209	162
0	1768372	1210	92
0	1769779	1211	156
0	1771343	1212	151
0	1772940	1213	154
0	1774538	1214	177
0	1776062	1215	165
0	1777469	1216	134
0	1778731	1217	109
0	1780049	1218	123
0	1781563	1219	159
0	1783053	1220	134
0	1784456	1221	132
0	1785608	1222	115
0	1786999	1223	140
0	1788596	1224	156
0	1790381	1225	180
0	1792003	1226	131
0	1793363	1227	119
0	1795024	1228	166
0	1796556	1229	157
0	1797644	1230	104
0	1799152	1231	141
0	1800547	1232	138
0	1802155	1233	157
0	1803846	1234	174
0	1805168	1235	119
0	1806574	1236	137
0	1808190	1237	147
0	1809824	1238	151
0	1811250	1239	151
0	1812691	1240	127
0	1814195	1241	153
0	1815722	1242	144
0	1817172	1243	145
0	1818833	1244	170
0	1820059	1245	137
0	1821519	1246	157
0	1822772	1247	106
0	1824059	1248	116
0	1825593	1249	167
0	1827171	1250	140
0	1828449	1251	129
0	1829834	1252	144
0	1831408	1253	163
0	1833094	1254	175
0	1834268	1255	87
0	1835413	1256	100
0	1836782	1257	134
0	1838262	1258	139
0	1839673	1259	126
0	1841257	1260	152
0	1842587	1261	117
0	1844513	1262	189
0	1845947	1263	147
0	1847518	1264	150
0	1848955	1265	144
0	1850528	1266	152
0	1851651	1267	92
0	1852981	1268	129
0	1854417	1269	135
0	1855899	1270	124
0	1857089	1271	121
0	1858439	1272	117
0	1859811	1273	129
0	1861170	1274	122
0	1862542	1275	117
0	1864093	1276	162
0	1865313	1277	113
0	1866863	1278	149
0	1868141	1279	117
0	1869731	1280	170
0	1871487	1281	177
0	1873058	1282	164
0	1874441	1283	158
0	1875732	1284	122
0	1877037	1285	126
0	1878665	1286	161
0	1880199	1287	131
0	1881452	1288	120
0	1883029	1289	148
0	1884498	1290	131
0	1885963	1291	146
0	1887397	1292	133
0	1888913	1293	151
0	1890162	1294	114
0	1891819	1295	158
0	1893544	1296	162
0	1894997	1297	136
0	1896845	1298	181
0	1898083	1299	119
0	1899469	1300	146
0	1900999	1301	135
0	1902245	1302	111
0	1904002	1303	180
0	1905896	1304	183
0	1907495	1305	162
0	1909130	1306	154
0	1910391	1307	128
0	1911940	1308	156
0	1913295	1309	118
0	1914671	1310	150
0	1916020	1311	138
0	1917296	1312	113
0	1918877	1313	152
0	1920336	1314	162
0	1921794	1315	131
0	1923238	1316	129
0	1924797	1317	138
0	1926221	1318	149
0	1927387	1319	111
0	1928543	1320	84
0	1929766	1321	94
0	1931184	1322	143
0	1932552	1323	135
0	1933934	1324	149
0	1935386	1325	139
0	1936895	1326	146
0	1938612	1327	188
0	1939784	1328	97
0	1941158	1329	131
0	1942690	1330	152
0	1943941	1331	118
0	1945539	1332	147
0	1947016	1333	124
0	1948538	1334	143
0	1949971	1335	136
0	1951584	1336	160
0	1952933	1337	122
0	1954443	1338	133
0	1955712	1339	104
0	1957129	1340	151
0	1958488	1341	132
0	1960005	1342	160
0	1961405	1343	127
0	1962687	1344	131
0	1964044	1345	130
0	1965448	1346	133
0	1967228	1347	175
0	1968612	1348	141
0	1970067	1349	120
0	1971196	1350	103
0	1972478	1351	117
0	1973683	1352	130
0	1975171	1353	159
0	1976364	1354	88
0	1977725	1355	132
0	1979171	1356	127
0	1980530	1357	134
0	1981770	1358	117
0	1983078	1359	115
0	1984677	1360	157
0	1986245	1361	163
0	1987356	1362	104
0	1989074	1363	169
0	1990708	1364	155
0	1992056	1365	115
0	1993795	1366	168
0	1995114	1367	126
0	1996762	1368	169
0	1998157	1369	158
0	1999642	1370	145
0	2000913	1371	126
0	2002231	1372	125
0	2003692	1373	152
0	2005549	1374	176
0	2007185	1375	145
0	2008717	1376	153
0	2010462	1377	186
0	2012072	1378	177
0	2013304	1379	109
0	2014789	1380	123
0	2016443	1381	173
0	2018121	1382	161
0	2019836	1383	160
0	2021356	1384	133
0	2022705	1385	128
0	2024434	1386	186
0	2025824	1387	135
0	2027012	1388	105
0	2028348	1389	125
0	2029792	1390	132
0	2031092	1391	135
0	2032688	1392	157
0	2034161	1393	134
0	2035723	1394	139
0	2037454	1395	148
0	2038909	1396	138
0	2040295	1397	127
0	2041686	1398	128
0	2043031	1399	128
0	2044528	1400	135
0	2045756	1401	117
0	2046782	1402	101
0	2048235	1403	142
0	2049393	1404	109
0	2050960	1405	146
0	2052424	1406	143
0	2053791	1407	128
0	2055073	1408	129
0	2056400	1409	116
0	2057651	1410	119
0	2058708	1411	100
0	2060029	1412	144
0	2061381	1413	119
0	2062953	1414	153
0	2064736	1415	160
0	2066169	1416	136
0	2067819	1417	151
0	2069183	1418	137
0	2070868	1419	168
0	2072486	1420	154
0	2074063	1421	152
0	2075512	1422	132
0	2076956	1423	145
0	2078209	1424	120
0	2079725	1425	157
0	2081069	1426	133
0	2082536	1427	152
0	2083875	1428	128
0	2085299	1429	139
0	2086781	1430	146
0	2088001	1431	103
0	2089376	1432	150
0	2091111	1433	164
0	2092423	1434	115
0	2093795	1435	121
0	2095266	1436	150
0	2097011	1437	160
0	2098524	1438	162
0	2099905	1439	154
0	2101535	1440	156
0	2103056	1441	146
0	2104387	1442	122
0	2105869	1443	155
0	2107321	1444	145
0	2108792	1445	152
0	2110462	1446	165
0	2111745	1447	122
0	2113252	1448	156
0	2114803	1449	136
0	2116267	1450	132
0	2117529	1451	117
0	2118904	1452	128
0	2120326	1453	141
0	2121955	1454	150
0	2123458	1455	150
0	2124683	1456	114
0	2126291	1457	151
0	2127727	1458	155
0	2129380	1459	152
0	2130694	1460	120
0	2132174	1461	141
0	2133571	1462	132
0	2134808	1463	120
0	2136054	1464	125
0	2137803	1465	152
0	2139406	1466	162
0	2140931	1467	136
0	2142600	1468	190
0	2143944	1469	129
0	2145712	1470	176
0	2147130	1471	151
0	2148134	1472	91
0	2149891	1473	186
0	2151364	1474	152
0	2152641	1475	128
0	2154208	1476	152
0	2155732	1477	141
0	2157417	1478	178
0	2158741	1479	117
0	2160493	1480	158
0	2162448	1481	196
0	2163947	1482	156
0	2165539	1483	171
0	2167022	1484	150
0	2168670	1485	165
0	2170419	1486	164
0	2171570	1487	102
0	2172832	1488	113
0	2174386	1489	157
0	2175701	1490	137
0	2177352	1491	170
0	2178602	1492	147
0	2179970	1493	121
0	2181374	1494	121
0	2182563	1495	92
0	2183986	1496	132
0	2185693	1497	186
0	2187252	1498	144
0	2188812	1499	153
0	2190162	1500	110
0	2191737	1501	126
0	2193139	1502	115
0	2194466	1503	102
0	2195944	1504	141
0	2197307	1505	142
0	2198780	1506	132
0	2200484	1507	167
0	2202149	1508	176
0	2203542	1509	120
0	2205187	1510	147
0	2206759	1511	137
0	2208188	1512	146
0	2209324	1513	99
0	2210995	1514	180
0	2212374	1515	144
0	2213993	1516	132
0	2215089	1517	99
0	2216677	1518	149
0	2218024	1519	128
0	2219474	1520	160
0	2220585	1521	94
0	2222156	1522	156
0	2223610	1523	135
0	2225242	1524	165
0	2226870	1525	147
0	2228417	1526	142
0	2229914	1527	158
0	2231287	1528	130
0	2232640	1529	132
0	2234131	1530	155
0	2235605	1531	129
0	2237056	1532	154
0	2238576	1533	149
0	2240194	1534	171
0	2241477	1535	114
0	2242987	1536	139
0	2244392	1537	136
0	2245981	1538	146
0	2247774	1539	174
0	2249264	1540	154
0	2250561	1541	110
0	2252061	1542	145
0	2253617	1543	143
0	2255064	1544	130
0	2256609	1545	144
0	2258230	1546	164
0	2259646	1547	139
0	2260850	1548	113
0	2262323	1549	138
0	2263717	1550	150
0	2265479	1551	175
0	2266984	1552	132
0	2268563	1553	150
0	2270294	1554	158
0	2271993	1555	174
0	2273631	1556	155
0	2275024	1557	136
0	2276283	1558	122
0	2277769	1559	149
0	2278939	1560	106
0	2280816	1561	162
0	2282564	1562	191
0	2284011	1563	138
0	2285344	1564	124
0	2286592	1565	107
0	2287612	1566	77
0	2289327	1567	158
0	2290422	1568	120
0	2291927	1569	162
0	2293021	1570	96
0	2294546	1571	158
0	2295536	1572	93
0	2297050	1573	141
0	2298529	1574	138
0	2299630	1575	84
0	2300940	1576	131
0	2302164	1577	105
0	2303537	1578	128
0	2305043	1579	149
0	2306183	1580	112
0	2307587	1581	145
0	2308934	1582	136
0	2310381	1583	144
0	2312384	1584	198
0	2313624	1585	107
0	2315189	1586	140
0	2316445	1587	125
0	2318028	1588	162
0	2319644	1589	163
0	2321440	1590	178
0	2322803	1591	124
0	2324143	1592	115
0	2325544	1593	138
0	2327085	1594	162
0	2328376	1595	128
0	2329848	1596	129
0	2331362	1597	169
0	2333106	1598	185
0	2334534	1599	155
0	2336312	1600	188
0	2337493	1601	100
0	2339146	1602	142
0	2340616	1603	153
0	2341893	1604	128
0	2343220	1605	118
0	2344419	1606	138
0	2346005	1607	141
0	2347399	1608	121
0	2348619	1609	107
0	2350225	1610	152
0	2351751	1611	143
0	2353349	1612	147
0	2354575	1613	123
0	2356164	1614	146