version 3
run SimulationTime-189-20240108-13:21:36-15996
attr configname SimulationTime
attr datetime 20240108-13:21:36
attr datetimef 20240108-132136
attr experiment SimulationTime
attr inifile omnetpp.ini
attr iterationvars ""
attr iterationvarsd ""
attr iterationvarsf ""
attr measurement ""
attr network System
attr processid 15996
attr repetition 189
attr replication #189
attr resultdir results
attr runnumber 189
attr seedset 189
config **.cpu.rate 1000
config **.hd.rateProcessing 250
config **.webServer.web_server_rate 100
config **.p1 0.35
config **.p2 0.40
config network System
config num-rngs 4
config **.cpu.rng-0 0
config **.cpu.rng-1 1
config **.hd.rng-0 2
config **.webServer.rng-0 3
config repeat 500
config seed-set 189
config sim-time-limit 10000s
config **.client.numClients 40

vector 0 System.server.cpu requestCounterStat:vector ETV
attr recordingmode vector
attr source requestCounter
vector 1 System.server.hd utilizationHdStat:vector ETV
attr recordingmode vector
attr source utilizationHd
vector 2 System.server.cpu utilizationCpuStat:vector ETV
attr recordingmode vector
attr source utilizationCpu
vector 3 System.webServer utilizationWsStat:vector ETV
attr recordingmode vector
attr source utilizationWs
0	2102	1	211
0	3457	2	110
0	5113	3	157
0	6821	4	181
0	8001	5	105
0	9035	6	91
0	10373	7	133
0	11952	8	140
0	13546	9	165
0	15167	10	153
0	16802	11	160
0	18567	12	190
0	20520	13	176
0	21875	14	130
0	23518	15	142
0	24870	16	137
0	26308	17	137
0	27645	18	126
0	29255	19	153
0	30888	20	177
0	32317	21	140
0	33678	22	112
0	35149	23	154
0	36776	24	158
0	38215	25	140
0	39527	26	147
0	40679	27	105
0	42035	28	147
0	43833	29	169
0	44976	30	101
0	46260	31	121
0	47544	32	113
0	48811	33	116
0	49945	34	89
0	51558	35	160
0	52847	36	112
0	54489	37	179
0	56220	38	158
0	57747	39	158
0	58880	40	101
0	60279	41	128
0	61770	42	158
0	63317	43	158
0	64971	44	165
0	66367	45	123
0	68154	46	158
0	69483	47	116
0	71307	48	169
0	72808	49	132
0	74764	50	194
0	76607	51	178
0	78228	52	154
0	79516	53	107
0	81319	54	176
0	82489	55	115
0	83894	56	152
0	85347	57	144
0	86742	58	150
0	88095	59	124
0	89443	60	132
0	90875	61	141
0	92493	62	165
0	93440	63	80
0	95229	64	176
0	96651	65	137
0	98457	66	185
0	99782	67	124
0	101226	68	133
0	102681	69	130
0	104235	70	136
0	105574	71	142
0	107012	72	137
0	108658	73	155
0	109982	74	113
0	111129	75	84
0	112624	76	140
0	114008	77	123
0	115428	78	115
0	116527	79	102
0	117679	80	120
0	119318	81	162
0	120700	82	123
0	122609	83	194
0	124143	84	145
0	125863	85	177
0	127482	86	154
0	129171	87	152
0	130677	88	143
0	132306	89	158
0	133828	90	144
0	135537	91	172
0	136774	92	140
0	138252	93	143
0	139938	94	141
0	141289	95	134
0	142818	96	154
0	144138	97	137
0	145504	98	147
0	146754	99	119
0	148004	100	124
0	149379	101	116
0	150954	102	170
0	152716	103	175
0	154071	104	130
0	155340	105	116
0	157132	106	153
0	158781	107	156
0	160209	108	127
0	161823	109	151
0	163400	110	139
0	165045	111	158
0	166422	112	124
0	167768	113	115
0	169213	114	132
0	170529	115	121
0	172099	116	151
0	173628	117	144
0	175253	118	148
0	176971	119	171
0	178473	120	142
0	180030	121	138
0	181449	122	146
0	183032	123	148
0	184403	124	134
0	185618	125	106
0	187010	126	145
0	188706	127	159
0	190424	128	171
0	191974	129	161
0	193419	130	135
0	194894	131	146
0	196319	132	132
0	197828	133	140
0	199074	134	129
0	200471	135	138
0	201902	136	150
0	203472	137	149
0	204939	138	148
0	206237	139	143
0	207885	140	168
0	209402	141	128
0	210772	142	115
0	212152	143	141
0	213689	144	172
0	215183	145	131
0	216260	146	112
0	217600	147	147
0	219229	148	170
0	220809	149	161
0	222004	150	117
0	223274	151	127
0	224551	152	120
0	225652	153	96
0	227311	154	162
0	228845	155	151
0	230600	156	160
0	232065	157	150
0	233338	158	120
0	234622	159	141
0	235934	160	132
0	237302	161	135
0	238770	162	129
0	240143	163	130
0	241713	164	147
0	243042	165	122
0	244513	166	136
0	246236	167	170
0	247538	168	131
0	248917	169	142
0	250323	170	130
0	251776	171	132
0	253288	172	145
0	254688	173	125
0	256254	174	139
0	257723	175	140
0	259238	176	138
0	260642	177	137
0	261986	178	129
0	263171	179	96
0	264631	180	148
0	266100	181	146
0	267739	182	180
0	268922	183	106
0	270444	184	155
0	271915	185	142
0	273322	186	134
0	274709	187	146
0	276045	188	121
0	277194	189	104
0	278232	190	82
0	279665	191	124
0	281092	192	116
0	282669	193	138
0	283945	194	121
0	285179	195	107
0	286785	196	155
0	287984	197	104
0	289404	198	123
0	290835	199	154
0	292266	200	141
0	293760	201	123
0	295168	202	125
0	296500	203	119
0	297751	204	114
0	299072	205	124
0	300605	206	146
0	302391	207	163
0	303596	208	132
0	305328	209	189
0	306889	210	151
0	308454	211	180
0	309546	212	77
0	310945	213	136
0	312416	214	140
0	313710	215	119
0	315504	216	171
0	316906	217	131
0	318376	218	157
0	319604	219	115
0	321019	220	153
0	322624	221	182
0	324502	222	183
0	326219	223	168
0	327328	224	90
0	328788	225	133
0	330060	226	117
0	331533	227	124
0	333147	228	145
0	334439	229	143
0	335971	230	168
0	337284	231	140
0	338965	232	168
0	340482	233	156
0	342166	234	147
0	343864	235	145
0	345638	236	179
0	346865	237	116
0	348452	238	136
0	349698	239	123
0	351212	240	150
0	352462	241	131
0	354243	242	154
0	355417	243	105
0	356846	244	116
0	358249	245	126
0	359906	246	150
0	361338	247	151
0	363098	248	187
0	364865	249	188
0	366204	250	121
0	367467	251	110
0	368826	252	134
0	369662	253	81
0	370898	254	107
0	371997	255	110
0	373381	256	147
0	374982	257	152
0	376283	258	130
0	377807	259	131
0	379098	260	121
0	380505	261	138
0	382037	262	157
0	383632	263	154
0	385168	264	145
0	386348	265	105
0	387797	266	160
0	388841	267	93
0	390225	268	147
0	391829	269	163
0	393021	270	116
0	394496	271	146
0	395751	272	122
0	397163	273	153
0	398761	274	157
0	400548	275	188
0	402110	276	143
0	403449	277	118
0	404665	278	117
0	405779	279	95
0	406967	280	124
0	408317	281	133
0	409940	282	164
0	411398	283	127
0	412633	284	112
0	414073	285	131
0	415633	286	147
0	417210	287	142
0	418593	288	118
0	420079	289	149
0	421983	290	178
0	423486	291	154
0	424838	292	137
0	426544	293	169
0	427936	294	143
0	429188	295	113
0	430633	296	132
0	432015	297	143
0	433503	298	143
0	435112	299	138
0	436272	300	120
0	437448	301	97
0	438776	302	121
0	440421	303	152
0	441882	304	124
0	442936	305	91
0	444578	306	159
0	446058	307	155
0	447203	308	118
0	448655	309	141
0	450271	310	158
0	451520	311	106
0	453222	312	171
0	454300	313	91
0	455908	314	147
0	457238	315	93
0	458749	316	142
0	460074	317	104
0	461492	318	127
0	462921	319	152
0	464053	320	94
0	465434	321	118
0	466973	322	134
0	468368	323	134
0	470193	324	188
0	471595	325	131
0	473471	326	185
0	474674	327	104
0	475968	328	109
0	477543	329	142
0	479282	330	187
0	481136	331	169
0	482471	332	142
0	483865	333	131
0	485597	334	181
0	486961	335	137
0	488422	336	146
0	489808	337	123
0	491150	338	127
0	492342	339	119
0	493846	340	140
0	495240	341	135
0	496579	342	130
0	497858	343	114
0	499297	344	134
0	500901	345	175
0	502494	346	168
0	503857	347	124
0	505552	348	168
0	507088	349	155
0	509081	350	195
0	510365	351	141
0	512053	352	161
0	513780	353	166
0	515411	354	152
0	517126	355	180
0	518508	356	131
0	519692	357	109
0	521070	358	135
0	522708	359	147
0	523882	360	110
0	525257	361	138
0	526739	362	137
0	527833	363	93
0	529258	364	148
0	530434	365	105
0	531621	366	94
0	533079	367	147
0	534791	368	167
0	536026	369	124
0	537680	370	166
0	539211	371	138
0	541088	372	214
0	542572	373	125
0	544232	374	155
0	545835	375	156
0	547235	376	139
0	548532	377	108
0	549957	378	128
0	551194	379	116
0	552918	380	172
0	554347	381	118
0	556124	382	166
0	557961	383	196
0	559641	384	181
0	561040	385	142
0	562750	386	159
0	564231	387	152
0	565900	388	166
0	567661	389	164
0	569127	390	152
0	570671	391	137
0	572319	392	161
0	573673	393	137
0	575197	394	147
0	576519	395	123
0	578009	396	147
0	579612	397	170
0	581400	398	165
0	582618	399	101
0	583912	400	120
0	585393	401	140
0	586986	402	160
0	588140	403	115
0	589581	404	132
0	591015	405	133
0	592645	406	187
0	594001	407	111
0	595414	408	142
0	596756	409	139
0	598031	410	109
0	599241	411	113
0	600806	412	156
0	602233	413	150
0	603640	414	122
0	605139	415	132
0	606516	416	112
0	607872	417	139
0	609604	418	173
0	611322	419	167
0	612761	420	143
0	614415	421	153
0	615939	422	137
0	617674	423	162
0	619318	424	165
0	620664	425	139
0	622401	426	174
0	623788	427	136
0	624933	428	100
0	626689	429	177
0	627886	430	107
0	629608	431	173
0	631367	432	184
0	633180	433	188
0	634636	434	123
0	636071	435	132
0	637360	436	116
0	639258	437	167
0	640882	438	149
0	642551	439	180
0	644016	440	141
0	645163	441	116
0	646640	442	152
0	648212	443	149
0	649479	444	118
0	651517	445	203
0	653393	446	175
0	654886	447	156
0	656502	448	159
0	658018	449	143
0	659566	450	154
0	660849	451	130
0	662141	452	109
0	663709	453	159
0	665237	454	161
0	666649	455	135
0	668162	456	140
0	669582	457	129
0	670959	458	136
0	672605	459	151
0	674009	460	134
0	675630	461	166
0	676911	462	124
0	678547	463	157
0	680045	464	129
0	681681	465	165
0	683256	466	146
0	684654	467	129
0	685807	468	96
0	687336	469	142
0	688786	470	136
0	690591	471	184
0	692166	472	162
0	693385	473	126
0	694826	474	132
0	696467	475	154
0	698002	476	152
0	699662	477	157
0	700979	478	128
0	702819	479	161
0	704325	480	130
0	705642	481	124
0	707078	482	155
0	708902	483	169
0	710018	484	115
0	711538	485	137
0	712788	486	123
0	714077	487	122
0	715620	488	146
0	717053	489	150
0	718678	490	157
0	719882	491	111
0	721297	492	122
0	722747	493	141
0	724073	494	133
0	725592	495	144
0	727063	496	152
0	728460	497	138
0	729775	498	112
0	731262	499	144
0	732734	500	158
0	734055	501	116
0	735466	502	130
0	736883	503	138
0	738623	504	167
0	740068	505	140
0	741320	506	115
0	742866	507	161
0	744341	508	130
0	746002	509	166
0	747554	510	158
0	749102	511	157
0	750574	512	131
0	751802	513	107
0	753624	514	169
0	755099	515	136
0	756458	516	126
0	757743	517	120
0	759133	518	141
0	760654	519	162
0	762281	520	135
0	763512	521	124
0	765338	522	175
0	767183	523	188
0	768852	524	154
0	770197	525	134
0	771769	526	153
0	773335	527	159
0	774896	528	172
0	776584	529	161
0	778393	530	175
0	779722	531	114
0	781366	532	155
0	782834	533	141
0	784078	534	125
0	785393	535	124
0	786849	536	135
0	788088	537	114
0	789660	538	141
0	791344	539	155
0	792998	540	144
0	794543	541	160
0	796122	542	136
0	797473	543	126
0	798761	544	135
0	800331	545	159
0	802170	546	202
0	803885	547	158
0	805295	548	131
0	806893	549	155
0	808312	550	133
0	809568	551	121
0	810828	552	103
0	812128	553	125
0	813367	554	118
0	814893	555	151
0	816583	556	157
0	817955	557	119
0	819389	558	141
0	820971	559	155
0	822198	560	109
0	823615	561	156
0	824894	562	106
0	826237	563	130
0	827315	564	87
0	829009	565	161
0	830392	566	134
0	832070	567	183
0	833585	568	132
0	835055	569	141
0	836359	570	106
0	838120	571	160
0	839636	572	177
0	841107	573	146
0	842506	574	130
0	843724	575	127
0	845165	576	150
0	846685	577	147
0	848101	578	139
0	849771	579	153
0	850967	580	124
0	852288	581	132
0	854012	582	157
0	855631	583	150
0	857479	584	187
0	858896	585	136
0	860091	586	116
0	861429	587	109
0	863115	588	167
0	864682	589	136
0	866013	590	117
0	867589	591	155
0	869034	592	150
0	870297	593	106
0	871497	594	111
0	873054	595	150
0	874115	596	96
0	875673	597	151
0	877102	598	132
0	878564	599	145
0	879638	600	92
0	880914	601	117
0	882456	602	141
0	883820	603	103
0	885304	604	125
0	886685	605	144
0	888034	606	130
0	889316	607	121
0	891076	608	181
0	892369	609	140
0	893983	610	140
0	895161	611	107
0	896490	612	130
0	898054	613	159
0	899688	614	163
0	901091	615	132
0	902472	616	134
0	904017	617	164
0	905664	618	180
0	906954	619	127
0	908179	620	119
0	909959	621	177
0	911317	622	125
0	912418	623	102
0	913770	624	117
0	915230	625	157
0	916678	626	149
0	918309	627	178
0	920005	628	159
0	921521	629	131
0	923229	630	160
0	924686	631	138
0	925984	632	105
0	927871	633	208
0	929254	634	128
0	930628	635	147
0	931971	636	146
0	933486	637	136
0	934674	638	119
0	936222	639	157
0	937874	640	168
0	939519	641	168
0	941041	642	151
0	942700	643	170
0	944191	644	138
0	946081	645	201
0	947522	646	130
0	949010	647	157
0	950377	648	126
0	951950	649	148
0	953991	650	213
0	955517	651	149
0	956975	652	119
0	958627	653	173
0	959803	654	117
0	961405	655	127
0	963156	656	188
0	964364	657	115
0	965767	658	142
0	967330	659	148
0	968618	660	114
0	970048	661	159
0	971473	662	120
0	972732	663	110
0	974183	664	136
0	975865	665	147
0	977228	666	142
0	978594	667	135
0	979775	668	94
0	981122	669	120
0	982668	670	122
0	984257	671	138
0	985628	672	126
0	986924	673	121
0	988125	674	128
0	989478	675	116
0	990949	676	144
0	992564	677	152
0	994020	678	133
0	995308	679	115
0	997051	680	153
0	998490	681	156
0	999786	682	133
0	1001485	683	160
0	1003486	684	194
0	1005148	685	153
0	1006734	686	165
0	1008375	687	160
0	1009507	688	105
0	1010998	689	138
0	1012586	690	156
0	1014271	691	152
0	1015837	692	157
0	1017136	693	152
0	1018425	694	120
0	1020064	695	162
0	1021138	696	127
0	1022480	697	135
0	1023757	698	128
0	1024896	699	106
0	1026018	700	86
0	1027578	701	137
0	1029167	702	176
0	1030484	703	144
0	1031658	704	117
0	1033127	705	158
0	1034906	706	180
0	1036542	707	163
0	1038424	708	161
0	1039857	709	126
0	1041422	710	173
0	1043016	711	161
0	1044419	712	136
0	1045852	713	134
0	1047348	714	157
0	1049000	715	165
0	1050525	716	134
0	1051937	717	147
0	1053193	718	117
0	1054667	719	131
0	1055795	720	108
0	1057103	721	129
0	1058756	722	170
0	1060312	723	151
0	1061841	724	138
0	1063238	725	126
0	1064792	726	145
0	1066235	727	136
0	1067413	728	103
0	1068781	729	129
0	1070105	730	116
0	1071423	731	131
0	1072464	732	84
0	1073848	733	137
0	1075294	734	135
0	1076425	735	110
0	1078199	736	171
0	1079698	737	148
0	1081149	738	140
0	1082764	739	170
0	1084340	740	152
0	1085844	741	137
0	1087188	742	121
0	1088880	743	185
0	1090404	744	151
0	1092011	745	144
0	1093156	746	100
0	1094551	747	126
0	1096079	748	133
0	1097218	749	104
0	1098612	750	132
0	1100132	751	147
0	1101287	752	118
0	1102728	753	142
0	1104131	754	114
0	1105614	755	146
0	1107215	756	166
0	1108824	757	170
0	1110003	758	98
0	1111629	759	157
0	1113375	760	188
0	1114920	761	152
0	1116373	762	134
0	1117760	763	148
0	1119047	764	122
0	1120639	765	139
0	1122175	766	169
0	1123647	767	151
0	1124937	768	119
0	1126433	769	149
0	1127819	770	130
0	1128961	771	105
0	1130487	772	141
0	1132131	773	167
0	1133638	774	154
0	1135170	775	167
0	1136188	776	91
0	1137753	777	144
0	1139244	778	122
0	1140847	779	156
0	1142249	780	118
0	1143472	781	116
0	1145330	782	197
0	1146675	783	124
0	1148173	784	163
0	1149670	785	126
0	1151390	786	177
0	1152859	787	148
0	1154427	788	163
0	1155910	789	132
0	1157150	790	128
0	1158438	791	117
0	1160065	792	160
0	1161604	793	144
0	1163054	794	149
0	1164236	795	129
0	1165654	796	133
0	1166969	797	108
0	1168666	798	176
0	1170320	799	159
0	1171842	800	146
0	1173372	801	155
0	1174821	802	142
0	1176213	803	119
0	1177391	804	103
0	1178935	805	149
0	1180353	806	131
0	1181668	807	130
0	1183262	808	139
0	1184471	809	120
0	1186163	810	170
0	1187619	811	127
0	1189189	812	151
0	1190349	813	113
0	1191667	814	125
0	1193224	815	154
0	1194915	816	158
0	1196452	817	148
0	1197858	818	135
0	1199179	819	144
0	1200705	820	144
0	1202155	821	161
0	1203768	822	148
0	1205401	823	168
0	1206870	824	148
0	1208342	825	137
0	1209623	826	124
0	1210840	827	106
0	1212233	828	134
0	1213596	829	130
0	1214970	830	140
0	1216603	831	138
0	1218068	832	128
0	1219341	833	122
0	1220570	834	106
0	1222312	835	175
0	1223886	836	151
0	1225743	837	176
0	1226862	838	114
0	1228143	839	138
0	1229250	840	99
0	1230469	841	126
0	1231756	842	138
0	1232776	843	101
0	1234226	844	145
0	1235723	845	162
0	1237269	846	159
0	1238845	847	141
0	1240295	848	139
0	1241698	849	144
0	1243052	850	112
0	1244411	851	94
0	1246048	852	138
0	1247836	853	151
0	1249260	854	137
0	1250842	855	161
0	1252470	856	155
0	1254150	857	159
0	1255471	858	136
0	1257055	859	155
0	1258465	860	146
0	1260230	861	172
0	1261581	862	130
0	1262947	863	123
0	1264413	864	121
0	1265785	865	137
0	1267078	866	122
0	1268515	867	140
0	1269746	868	104
0	1271446	869	183
0	1272791	870	129
0	1274085	871	119
0	1275585	872	137
0	1277054	873	146
0	1278535	874	150
0	1279765	875	127
0	1281099	876	121
0	1282456	877	130
0	1283924	878	119
0	1285254	879	123
0	1286463	880	103
0	1288310	881	178
0	1289587	882	110
0	1291292	883	174
0	1292871	884	146
0	1294261	885	147
0	1295731	886	147
0	1296949	887	123
0	1298573	888	153
0	1300282	889	188
0	1301354	890	100
0	1302894	891	145
0	1304666	892	171
0	1306280	893	167
0	1307750	894	131
0	1309355	895	154
0	1310843	896	139
0	1312630	897	176
0	1314396	898	167
0	1315771	899	124
0	1317252	900	153
0	1318702	901	131
0	1320112	902	119
0	1321668	903	153
0	1322865	904	114
0	1324254	905	110
0	1325814	906	139
0	1327544	907	185
0	1329087	908	152
0	1330598	909	162
0	1332350	910	178
0	1333947	911	160
0	1335545	912	139
0	1336824	913	110
0	1338323	914	154
0	1339526	915	112
0	1341384	916	183
0	1342990	917	157
0	1344530	918	127
0	1345893	919	136
0	1347476	920	157
0	1348632	921	109
0	1350102	922	145
0	1351643	923	130
0	1353114	924	142
0	1354527	925	144
0	1355904	926	132
0	1357190	927	115
0	1358768	928	155
0	1360572	929	149
0	1361795	930	113
0	1363446	931	154
0	1364800	932	139
0	1366279	933	142
0	1367740	934	132
0	1369078	935	113
0	1370495	936	142
0	1371800	937	132
0	1373255	938	144
0	1374860	939	138
0	1376366	940	146
0	1377906	941	153
0	1379145	942	118
0	1380437	943	123
0	1382164	944	164
0	1383861	945	172
0	1385301	946	153
0	1386478	947	100
0	1387771	948	110
0	1389119	949	133
0	1390586	950	159
0	1392151	951	168
0	1393627	952	149
0	1395090	953	142
0	1396798	954	159
0	1398391	955	150
0	1399841	956	133
0	1401192	957	124
0	1402754	958	131
0	1404020	959	131
0	1405178	960	112
0	1406521	961	130
0	1408062	962	158
0	1409303	963	124
0	1410875	964	147
0	1412204	965	132
0	1413491	966	132
0	1414895	967	123
0	1416611	968	159
0	1417828	969	104
0	1419248	970	144
0	1420471	971	110
0	1421725	972	107
0	1423362	973	158
0	1424849	974	136
0	1426341	975	139
0	1427382	976	106
0	1428847	977	144
0	1430307	978	129
0	1431598	979	126
0	1432780	980	114
0	1434161	981	126
0	1435720	982	168
0	1437290	983	159
0	1439029	984	168
0	1440228	985	104
0	1442117	986	180
0	1443584	987	148
0	1444620	988	103
0	1445937	989	124
0	1446929	990	92
0	1448160	991	118
0	1449549	992	142
0	1450825	993	125
0	1452176	994	128
0	1453482	995	123
0	1455077	996	156
0	1456714	997	176
0	1458036	998	135
0	1459658	999	161
0	1461220	1000	174
0	1462519	1001	106
0	1464157	1002	151
0	1465403	1003	113
0	1467065	1004	189
0	1468603	1005	167
0	1470141	1006	147
0	1471748	1007	172
0	1473051	1008	124
0	1474399	1009	117
0	1475917	1010	170
0	1477327	1011	135
0	1478870	1012	158
0	1480420	1013	147
0	1481911	1014	138
0	1483388	1015	140
0	1484814	1016	129
0	1486261	1017	148
0	1487369	1018	105
0	1488781	1019	137
0	1490498	1020	183
0	1491675	1021	112
0	1493369	1022	175
0	1494992	1023	170
0	1496219	1024	130
0	1497709	1025	139
0	1499215	1026	165
0	1500651	1027	135
0	1502208	1028	150
0	1503839	1029	172
0	1505423	1030	132
0	1506719	1031	117
0	1508530	1032	186
0	1509607	1033	96
0	1511417	1034	169
0	1513058	1035	138
0	1514199	1036	110
0	1516030	1037	176
0	1517746	1038	175
0	1518838	1039	109
0	1520110	1040	122
0	1521420	1041	135
0	1522718	1042	123
0	1524254	1043	157
0	1525702	1044	151
0	1527040	1045	129
0	1528534	1046	143
0	1529645	1047	94
0	1531221	1048	137
0	1532833	1049	153
0	1534262	1050	147
0	1535792	1051	139
0	1537398	1052	165
0	1538832	1053	131
0	1540030	1054	117
0	1541502	1055	133
0	1542938	1056	161
0	1544443	1057	172
0	1546323	1058	197
0	1548075	1059	175
0	1549789	1060	176
0	1551280	1061	134
0	1552944	1062	165
0	1554427	1063	130
0	1555884	1064	132
0	1557167	1065	94
0	1558656	1066	152
0	1560149	1067	146
0	1561933	1068	175
0	1563547	1069	165
0	1564964	1070	121
0	1566354	1071	141
0	1567543	1072	116
0	1568744	1073	126
0	1570195	1074	150
0	1571409	1075	129
0	1572594	1076	106
0	1574108	1077	149
0	1575556	1078	127
0	1577059	1079	150
0	1578399	1080	112
0	1579812	1081	132
0	1581362	1082	147
0	1582757	1083	122
0	1584324	1084	134
0	1585556	1085	115
0	1586900	1086	135
0	1588473	1087	140
0	1589989	1088	139
0	1591679	1089	195
0	1593205	1090	136
0	1594540	1091	130
0	1596201	1092	168
0	1597346	1093	118
0	1598894	1094	159
0	1600184	1095	135
0	1601475	1096	124
0	1602818	1097	114
0	1604226	1098	139
0	1605813	1099	166
0	1607177	1100	128
0	1608689	1101	137
0	1610481	1102	171
0	1611990	1103	156
0	1613664	1104	165
0	1614971	1105	134
0	1616293	1106	119
0	1617602	1107	130
0	1619031	1108	118
0	1620273	1109	117
0	1621643	1110	144
0	1623114	1111	156
0	1624379	1112	146
0	1625783	1113	121
0	1627019	1114	115
0	1628362	1115	128
0	1629746	1116	143
0	1631004	1117	109
0	1632600	1118	155
0	1633761	1119	106
0	1635300	1120	137
0	1636905	1121	156
0	1638419	1122	163
0	1640041	1123	167
0	1641544	1124	142
0	1643047	1125	148
0	1644361	1126	119
0	1645537	1127	119
0	1647045	1128	149
0	1648416	1129	140
0	1650086	1130	156
0	1651748	1131	185
0	1653214	1132	133
0	1654197	1133	84
0	1655569	1134	129
0	1657120	1135	150
0	1658749	1136	162
0	1660212	1137	134
0	1661610	1138	131
0	1662794	1139	125
0	1663829	1140	101
0	1665202	1141	120
0	1666799	1142	156
0	1668576	1143	186
0	1669954	1144	127
0	1671387	1145	138
0	1673362	1146	202
0	1675220	1147	179
0	1677009	1148	174
0	1678296	1149	112
0	1679466	1150	92
0	1680573	1151	92
0	1682228	1152	164
0	1683647	1153	132
0	1685079	1154	141
0	1686494	1155	134
0	1687604	1156	103
0	1689058	1157	135
0	1690395	1158	112
0	1691996	1159	144
0	1693369	1160	125
0	1694774	1161	126
0	1696352	1162	157
0	1697845	1163	138
0	1699272	1164	124
0	1700980	1165	147
0	1702134	1166	111
0	1703229	1167	108
0	1704346	1168	102
0	1705917	1169	140
0	1707189	1170	126
0	1708832	1171	166
0	1710104	1172	111
0	1711416	1173	121
0	1712834	1174	151
0	1714386	1175	137
0	1715859	1176	142
0	1716938	1177	92
0	1718076	1178	123
0	1719672	1179	159
0	1721079	1180	125
0	1722367	1181	117
0	1723703	1182	115
0	1725282	1183	158
0	1726667	1184	114
0	1727834	1185	86
0	1729394	1186	157
0	1730777	1187	130
0	1732248	1188	138
0	1733744	1189	143
0	1735054	1190	104
0	1736894	1191	185
0	1738645	1192	190
0	1740269	1193	153
0	1741399	1194	99
0	1743011	1195	141
0	1744294	1196	130
0	1746122	1197	159
0	1747667	1198	152
0	1749308	1199	152
0	1750877	1200	159
0	1752448	1201	152
0	1753998	1202	143
0	1755382	1203	133
0	1756814	1204	133
0	1757908	1205	109
0	1759692	1206	151
0	1760920	1207	125
0	1762269	1208	128
0	1763534	1209	100
0	1765571	1210	195
0	1767571	1211	187
0	1769115	1212	147
0	1770497	1213	127
0	1772240	1214	174
0	1773870	1215	161
0	1775209	1216	126
0	1776834	1217	164
0	1777968	1218	105
0	1779536	1219	153
0	1781353	1220	191
0	1782954	1221	144
0	1784582	1222	167
0	1786251	1223	168
0	1787539	1224	131
0	1789281	1225	183
0	1790566	1226	96
0	1791961	1227	134
0	1793539	1228	159
0	1795172	1229	150
0	1796682	1230	156
0	1798283	1231	144
0	1799969	1232	159
0	1801435	1233	129
0	1802802	1234	128
0	1804374	1235	157
0	1805966	1236	143
0	1807545	1237	140
0	1809176	1238	158
0	1810485	1239	124
0	1811879	1240	140
0	1813003	1241	107
0	1814301	1242	123
0	1815425	1243	109
0	1816966	1244	144
0	1818440	1245	135
0	1819906	1246	123
0	1821376	1247	137
0	1822858	1248	143
0	1824168	1249	113
0	1825565	1250	133
0	1826758	1251	106
0	1828262	1252	135
0	1829335	1253	98
0	1830780	1254	120
0	1832421	1255	168
0	1833641	1256	117
0	1835028	1257	130
0	1836664	1258	155
0	1838000	1259	131
0	1839351	1260	117
0	1840942	1261	160
0	1842520	1262	141
0	1843931	1263	110
0	1845634	1264	150
0	1847110	1265	137
0	1848344	1266	115
0	1849863	1267	140
0	1851218	1268	138
0	1852656	1269	145
0	1854211	1270	153
0	1855653	1271	147
0	1857101	1272	145
0	1858714	1273	154
0	1860528	1274	169
0	1861884	1275	113
0	1863858	1276	199
0	1865493	1277	162
0	1867120	1278	144
0	1868751	1279	164
0	1870178	1280	141
0	1871544	1281	147
0	1872911	1282	136
0	1874485	1283	153
0	1876160	1284	156
0	1877626	1285	129
0	1878884	1286	123
0	1880161	1287	134
0	1881634	1288	140
0	1882778	1289	103
0	1884087	1290	127
0	1885311	1291	119
0	1886938	1292	176
0	1888326	1293	125
0	1889896	1294	149
0	1891401	1295	146
0	1892894	1296	164
0	1894319	1297	132
0	1895464	1298	96
0	1897009	1299	152
0	1898198	1300	121
0	1899782	1301	135
0	1901370	1302	149
0	1902630	1303	133
0	1904284	1304	165
0	1906094	1305	163
0	1907479	1306	116
0	1908818	1307	124
0	1910324	1308	147
0	1911652	1309	125
0	1913416	1310	172
0	1914954	1311	149
0	1916663	1312	156
0	1918315	1313	169
0	1919745	1314	147
0	1921286	1315	146
0	1922892	1316	163
0	1924257	1317	124
0	1925436	1318	102
0	1927069	1319	148
0	1928558	1320	135
0	1929944	1321	131
0	1931366	1322	121
0	1933169	1323	184
0	1934913	1324	163
0	1936395	1325	137
0	1937794	1326	126
0	1939240	1327	147
0	1940689	1328	154
0	1942312	1329	158
0	1943602	1330	126
0	1945046	1331	121
0	1946857	1332	196
0	1948438	1333	144
0	1950102	1334	181
0	1951596	1335	147
0	1953005	1336	120
0	1954432	1337	134
0	1955654	1338	115
0	1957091	1339	134
0	1958657	1340	148
0	1960214	1341	150
0	1961936	1342	135
0	1963460	1343	123
0	1965065	1344	172
0	1966632	1345	166
0	1968010	1346	127
0	1969343	1347	132
0	1970822	1348	146
0	1972262	1349	145
0	1973660	1350	138
0	1975293	1351	154
0	1976708	1352	142
0	1978248	1353	147
0	1980009	1354	188
0	1981490	1355	132
0	1982530	1356	93
0	1983979	1357	148
0	1985318	1358	116
0	1986778	1359	141
0	1988174	1360	134
0	1989614	1361	139
0	1991051	1362	144
0	1992572	1363	138
0	1994288	1364	169
0	1996030	1365	163
0	1997357	1366	130
0	1998703	1367	131
0	2000060	1368	140
0	2001537	1369	140
0	2002899	1370	138
0	2004364	1371	152
0	2005617	1372	110
0	2007032	1373	128
0	2008707	1374	162
0	2010214	1375	134
0	2011824	1376	147
0	2013259	1377	118
0	2014667	1378	113
0	2015994	1379	130
0	2017263	1380	127
0	2018664	1381	140
0	2020065	1382	116
0	2021674	1383	168
0	2022815	1384	104
0	2024038	1385	118
0	2025256	1386	127
0	2026717	1387	140
0	2028058	1388	130
0	2029377	1389	128
0	2030658	1390	139
0	2032042	1391	125
0	2033405	1392	126
0	2035266	1393	208
0	2036614	1394	117
0	2038212	1395	171
0	2039659	1396	134
0	2041265	1397	159
0	2042717	1398	135
0	2043930	1399	134
0	2045274	1400	130
0	2046579	1401	122
0	2047930	1402	120
0	2049183	1403	110
0	2050807	1404	165
0	2052337	1405	137
0	2053951	1406	159
0	2055516	1407	150
0	2057020	1408	131
0	2058637	1409	178
0	2060057	1410	154
0	2061454	1411	136
0	2062571	1412	114
0	2063855	1413	121
0	2065205	1414	135
0	2066757	1415	145
0	2068080	1416	128
0	2069493	1417	126
0	2070742	1418	112
0	2072280	1419	151
0	2073621	1420	111
0	2075205	1421	165
0	2076703	1422	155
0	2078372	1423	168
0	2079681	1424	112
0	2081082	1425	124
0	2082534	1426	125
0	2083919	1427	120
0	2085358	1428	156
0	2086623	1429	114
0	2088495	1430	168
0	2089969	1431	131
0	2091467	1432	159
0	2093151	1433	165
0	2094687	1434	129
0	2095941	1435	125
0	2097114	1436	106
0	2098371	1437	124
0	2099641	1438	103
0	2101110	1439	120
0	2102488	1440	124
0	2103842	1441	125
0	2105303	1442	138
0	2106621	1443	115
0	2108480	1444	200
0	2110151	1445	154
0	2111496	1446	130
0	2113029	1447	130
0	2114643	1448	159
0	2116464	1449	188
0	2117788	1450	116
0	2119224	1451	133
0	2120844	1452	173
0	2122419	1453	162
0	2123639	1454	113
0	2124799	1455	111
0	2125992	1456	130
0	2127543	1457	150
0	2129220	1458	168
0	2130965	1459	170
0	2132658	1460	159
0	2134313	1461	162
0	2135667	1462	113
0	2137343	1463	169
0	2138860	1464	144
0	2140156	1465	125
0	2141681	1466	148
0	2143588	1467	176
0	2144692	1468	103
0	2146221	1469	140
0	2147631	1470	136
0	2149426	1471	178
0	2150996	1472	159
0	2152250	1473	129
0	2153646	1474	139
0	2155004	1475	125
0	2156540	1476	149
0	2157866	1477	123
0	2159170	1478	135
0	2160386	1479	103
0	2161849	1480	129
0	2163202	1481	124
0	2164653	1482	146
0	2166282	1483	148
0	2167829	1484	156
0	2168864	1485	88
0	2170344	1486	129
0	2171719	1487	142
0	2173109	1488	139
0	2174504	1489	134
0	2176039	1490	145
0	2177646	1491	164
0	2179021	1492	124
0	2180550	1493	138
0	2182009	1494	152
0	2183472	1495	130
0	2184838	1496	143
0	2186284	1497	151
0	2187998	1498	161
0	2189428	1499	141
0	2190994	1500	130
0	2192342	1501	123
0	2193702	1502	135
0	2194970	1503	123
0	2196406	1504	137
0	2198192	1505	185
0	2199975	1506	198
0	2201289	1507	133
0	2202584	1508	108
0	2203817	1509	120
0	2204927	1510	98
0	2205791	1511	77
0	2207264	1512	122
0	2208689	1513	134
0	2209954	1514	100
0	2211641	1515	178
0	2213335	1516	163
0	2214772	1517	152
0	2216370	1518	167
0	2217876	1519	147
0	2219471	1520	165
0	2220868	1521	138
0	2222385	1522	146
0	2223822	1523	128
0	2225818	1524	193
0	2227166	1525	133
0	2228880	1526	175
0	2230122	1527	127
0	2231780	1528	163
0	2233330	1529	145
0	2234877	1530	147
0	2236241	1531	129
0	2237761	1532	141
0	2239257	1533	131
0	2240606	1534	138
0	2242015	1535	126
0	2243494	1536	148
0	2245208	1537	159
0	2246840	1538	165
0	2248196	1539	129
0	2249570	1540	162
0	2251250	1541	173
0	2252882	1542	149
0	2254567	1543	168
0	2256265	1544	153
0	2257640	1545	136
0	2259149	1546	164
0	2260615	1547	145
0	2261596	1548	110
0	2263050	1549	133
0	2264563	1550	135
0	2266298	1551	172
0	2267543	1552	124
0	2269001	1553	135
0	2270133	1554	113
0	2271243	1555	99
0	2272889	1556	155
0	2274404	1557	146
0	2275911	1558	134
0	2277413	1559	147
0	2278715	1560	106
0	2280502	1561	170
0	2282097	1562	150
0	2283340	1563	114
0	2284887	1564	170
0	2286421	1565	147
0	2287603	1566	99
0	2288828	1567	120
0	2290302	1568	139
0	2291717	1569	146
0	2293291	1570	150
0	2294559	1571	109
0	2296146	1572	166
0	2297675	1573	150
0	2299386	1574	168
0	2301039	1575	156
0	2302505	1576	139
0	2303756	1577	122
0	2305159	1578	134
0	2306557	1579	145
0	2307966	1580	141
0	2309721	1581	160
0	2311448	1582	156
0	2312961	1583	134
0	2314597	1584	153
0	2316100	1585	158
0	2317490	1586	125
0	2318930	1587	133
0	2320448	1588	155
0	2322036	1589	161
0	2323675	1590	169
0	2325062	1591	108
0	2326301	1592	120
0	2327717	1593	125
0	2328992	1594	110
0	2330382	1595	147
0	2331763	1596	124
0	2333355	1597	149
0	2334811	1598	139
0	2336066	1599	100
0	2337574	1600	154
0	2339091	1601	142
0	2340715	1602	173
0	2342323	1603	155
0	2343791	1604	155
0	2345296	1605	140
0	2346693	1606	142
0	2348164	1607	142
0	2349629	1608	130
0	2350934	1609	126
0	2352505	1610	135
0	2354079	1611	143
0	2355424	1612	132
0	2357020	1613	161
0	2358650	1614	163