version 3
run SimulationTime-152-20240108-13:21:11-7380
attr configname SimulationTime
attr datetime 20240108-13:21:11
attr datetimef 20240108-132111
attr experiment SimulationTime
attr inifile omnetpp.ini
attr iterationvars ""
attr iterationvarsd ""
attr iterationvarsf ""
attr measurement ""
attr network System
attr processid 7380
attr repetition 152
attr replication #152
attr resultdir results
attr runnumber 152
attr seedset 152
config **.cpu.rate 1000
config **.hd.rateProcessing 250
config **.webServer.web_server_rate 100
config **.p1 0.35
config **.p2 0.40
config network System
config num-rngs 4
config **.cpu.rng-0 0
config **.cpu.rng-1 1
config **.hd.rng-0 2
config **.webServer.rng-0 3
config repeat 500
config seed-set 152
config sim-time-limit 10000s
config **.client.numClients 40

vector 0 System.server.cpu requestCounterStat:vector ETV
attr recordingmode vector
attr source requestCounter
vector 1 System.server.hd utilizationHdStat:vector ETV
attr recordingmode vector
attr source utilizationHd
vector 2 System.server.cpu utilizationCpuStat:vector ETV
attr recordingmode vector
attr source utilizationCpu
vector 3 System.webServer utilizationWsStat:vector ETV
attr recordingmode vector
attr source utilizationWs
0	1913	1	160
0	3477	2	151
0	5521	3	219
0	6872	4	130
0	8125	5	120
0	9757	6	165
0	11214	7	148
0	12914	8	161
0	14229	9	134
0	15587	10	122
0	17039	11	145
0	18604	12	148
0	19986	13	143
0	21233	14	102
0	23110	15	200
0	24201	16	98
0	25612	17	120
0	26715	18	106
0	28528	19	182
0	30171	20	179
0	31523	21	119
0	33065	22	149
0	34843	23	187
0	36420	24	152
0	38128	25	149
0	39761	26	154
0	41390	27	168
0	42963	28	142
0	44492	29	144
0	46046	30	130
0	47378	31	123
0	49010	32	177
0	50589	33	160
0	52258	34	168
0	53671	35	118
0	55223	36	165
0	56671	37	133
0	58111	38	139
0	59324	39	102
0	60675	40	115
0	62393	41	169
0	63910	42	148
0	65698	43	185
0	67115	44	138
0	68528	45	134
0	70026	46	143
0	71324	47	135
0	72549	48	114
0	74087	49	145
0	75446	50	119
0	76869	51	144
0	77982	52	100
0	79557	53	164
0	81259	54	169
0	82820	55	144
0	84412	56	133
0	86093	57	164
0	87333	58	121
0	88876	59	122
0	90379	60	145
0	91936	61	168
0	93358	62	125
0	94866	63	149
0	96012	64	105
0	97481	65	136
0	99012	66	154
0	100548	67	145
0	101868	68	133
0	103223	69	136
0	104416	70	125
0	106001	71	162
0	107571	72	169
0	108740	73	90
0	110368	74	139
0	111807	75	148
0	113174	76	120
0	114688	77	147
0	116153	78	144
0	117610	79	128
0	119173	80	153
0	121058	81	198
0	122433	82	138
0	123771	83	139
0	125216	84	164
0	126565	85	126
0	127915	86	109
0	129394	87	158
0	130832	88	141
0	131971	89	106
0	133350	90	151
0	134889	91	160
0	136578	92	176
0	138000	93	127
0	139596	94	161
0	141000	95	129
0	142462	96	139
0	144121	97	136
0	145876	98	156
0	147543	99	170
0	149207	100	168
0	150336	101	94
0	151860	102	147
0	153486	103	161
0	154914	104	143
0	156106	105	113
0	157368	106	121
0	158517	107	98
0	160189	108	157
0	161347	109	99
0	162768	110	141
0	164109	111	130
0	165555	112	135
0	166937	113	129
0	168570	114	156
0	169949	115	130
0	171559	116	129
0	173143	117	157
0	174952	118	180
0	176455	119	148
0	177885	120	152
0	179346	121	152
0	180711	122	130
0	182145	123	145
0	183364	124	106
0	184730	125	119
0	186491	126	184
0	187967	127	133
0	189314	128	122
0	190772	129	147
0	192049	130	123
0	193690	131	142
0	195010	132	115
0	196236	133	123
0	197365	134	92
0	198703	135	119
0	200023	136	143
0	201250	137	104
0	202426	138	113
0	203912	139	145
0	205494	140	156
0	206810	141	113
0	208038	142	117
0	209481	143	134
0	210897	144	135
0	212782	145	174
0	214158	146	121
0	215577	147	126
0	217136	148	152
0	218749	149	166
0	220268	150	153
0	221742	151	125
0	223381	152	136
0	225054	153	160
0	226550	154	141
0	227893	155	118
0	229656	156	184
0	231166	157	131
0	232867	158	162
0	234453	159	151
0	235782	160	139
0	236956	161	113
0	238189	162	102
0	239690	163	140
0	241287	164	160
0	242644	165	148
0	243942	166	113
0	245335	167	128
0	247160	168	162
0	248777	169	156
0	250278	170	155
0	251792	171	141
0	253467	172	170
0	254717	173	125
0	256440	174	184
0	257693	175	122
0	258776	176	96
0	260028	177	109
0	261897	178	180
0	263807	179	193
0	265359	180	164
0	266758	181	124
0	268198	182	147
0	269578	183	137
0	271379	184	172
0	272953	185	161
0	274325	186	123
0	276096	187	184
0	277362	188	129
0	278982	189	159
0	280618	190	158
0	282103	191	132
0	283793	192	161
0	285211	193	129
0	286599	194	123
0	287996	195	120
0	289376	196	131
0	290717	197	126
0	292374	198	184
0	293621	199	132
0	295124	200	153
0	296390	201	127
0	297994	202	171
0	299509	203	144
0	301133	204	165
0	302588	205	160
0	304030	206	145
0	305541	207	146
0	307157	208	159
0	308992	209	184
0	310580	210	164
0	311861	211	104
0	313439	212	145
0	314969	213	123
0	316614	214	178
0	318126	215	159
0	319586	216	151
0	320819	217	102
0	322471	218	155
0	323714	219	110
0	324921	220	115
0	326580	221	152
0	327909	222	128
0	329456	223	134
0	330739	224	112
0	331936	225	126
0	333515	226	164
0	335040	227	146
0	336385	228	140
0	337452	229	96
0	338633	230	105
0	340442	231	168
0	342051	232	156
0	343552	233	164
0	344701	234	92
0	346268	235	146
0	347953	236	166
0	349208	237	114
0	350827	238	162
0	352428	239	162
0	353970	240	136
0	355429	241	140
0	357143	242	157
0	358794	243	156
0	359964	244	101
0	361888	245	187
0	363664	246	181
0	364997	247	120
0	367004	248	208
0	368702	249	159
0	370541	250	165
0	371804	251	114
0	373281	252	138
0	374829	253	137
0	376294	254	152
0	377562	255	119
0	379066	256	133
0	380429	257	136
0	382102	258	178
0	383589	259	140
0	385339	260	166
0	386870	261	154
0	388001	262	98
0	389203	263	109
0	390727	264	153
0	392772	265	216
0	394378	266	157
0	396123	267	172
0	397719	268	153
0	398997	269	121
0	400137	270	110
0	401936	271	190
0	403441	272	142
0	405011	273	149
0	406376	274	144
0	407702	275	127
0	409155	276	138
0	410770	277	160
0	412441	278	164
0	414247	279	167
0	415676	280	137
0	417371	281	174
0	418848	282	148
0	420271	283	134
0	421632	284	108
0	423027	285	138
0	424436	286	118
0	425907	287	146
0	427178	288	122
0	428612	289	145
0	429988	290	136
0	431550	291	153
0	432613	292	88
0	434199	293	147
0	435660	294	136
0	437162	295	145
0	438634	296	135
0	440204	297	141
0	441784	298	173
0	442948	299	99
0	444770	300	180
0	446386	301	169
0	447841	302	124
0	449173	303	147
0	450991	304	189
0	452226	305	132
0	453626	306	135
0	454960	307	131
0	456483	308	146
0	458168	309	164
0	459345	310	117
0	460645	311	121
0	462080	312	148
0	463578	313	151
0	464942	314	141
0	466284	315	123
0	467745	316	140
0	468963	317	123
0	470413	318	139
0	471739	319	121
0	472989	320	112
0	474735	321	183
0	476056	322	128
0	477625	323	148
0	479270	324	152
0	480850	325	147
0	482179	326	130
0	483243	327	85
0	485026	328	186
0	486092	329	103
0	487517	330	131
0	489112	331	142
0	490729	332	162
0	492155	333	139
0	493556	334	120
0	494735	335	102
0	495996	336	118
0	497602	337	147
0	499185	338	152
0	500860	339	164
0	502411	340	165
0	503730	341	134
0	505215	342	134
0	506355	343	109
0	507788	344	126
0	509104	345	133
0	510527	346	110
0	512063	347	145
0	513333	348	109
0	514854	349	138
0	516065	350	123
0	517399	351	117
0	518871	352	145
0	520037	353	115
0	521214	354	96
0	522649	355	138
0	524180	356	126
0	525932	357	177
0	527469	358	126
0	529063	359	153
0	530522	360	141
0	531804	361	103
0	533370	362	153
0	534763	363	122
0	536308	364	148
0	537671	365	130
0	539495	366	189
0	541093	367	147
0	542758	368	172
0	544000	369	111
0	545029	370	91
0	546691	371	159
0	548094	372	146
0	549877	373	184
0	551248	374	140
0	552502	375	119
0	553851	376	144
0	555338	377	134
0	556999	378	160
0	558066	379	98
0	559166	380	112
0	560454	381	119
0	562046	382	133
0	563409	383	132
0	564554	384	112
0	566029	385	138
0	567326	386	122
0	568721	387	124
0	570086	388	112
0	571353	389	122
0	572806	390	141
0	574074	391	117
0	575533	392	138
0	576914	393	134
0	578453	394	134
0	579853	395	137
0	581414	396	148
0	583148	397	161
0	584667	398	156
0	585912	399	118
0	587335	400	131
0	588621	401	127
0	590186	402	164
0	591542	403	135
0	593079	404	134
0	594520	405	126
0	595865	406	126
0	597453	407	145
0	598761	408	141
0	600257	409	137
0	601767	410	146
0	603173	411	135
0	604461	412	125
0	606045	413	151
0	607416	414	140
0	608652	415	109
0	609898	416	117
0	611286	417	127
0	612817	418	128
0	614580	419	182
0	615762	420	100
0	617092	421	119
0	618660	422	165
0	619995	423	126
0	621225	424	111
0	622751	425	143
0	624099	426	129
0	625603	427	171
0	626995	428	139
0	628456	429	136
0	629958	430	146
0	631163	431	118
0	632720	432	152
0	633952	433	131
0	635084	434	105
0	636723	435	146
0	638604	436	200
0	640067	437	136
0	641216	438	98
0	642764	439	149
0	644539	440	173
0	646267	441	161
0	647773	442	143
0	649326	443	148
0	650700	444	135
0	651826	445	99
0	653443	446	174
0	654861	447	121
0	656266	448	120
0	658019	449	164
0	659457	450	138
0	660702	451	112
0	662465	452	182
0	663518	453	92
0	664923	454	146
0	666357	455	141
0	667774	456	156
0	669247	457	136
0	670703	458	133
0	672240	459	166
0	673694	460	138
0	675092	461	139
0	676668	462	139
0	677812	463	105
0	679231	464	144
0	680877	465	165
0	682495	466	151
0	683961	467	147
0	685543	468	167
0	686994	469	150
0	688337	470	119
0	689992	471	164
0	691395	472	130
0	692852	473	142
0	694522	474	177
0	696302	475	173
0	697896	476	147
0	699352	477	141
0	700696	478	129
0	702242	479	159
0	703635	480	107
0	705160	481	124
0	706469	482	124
0	707983	483	143
0	709171	484	119
0	710272	485	116
0	711852	486	139
0	713699	487	178
0	715134	488	146
0	716742	489	159
0	718841	490	211
0	720299	491	141
0	721840	492	138
0	723211	493	134
0	724707	494	133
0	726016	495	116
0	727719	496	154
0	729050	497	124
0	730352	498	125
0	731929	499	166
0	733522	500	147
0	734725	501	110
0	736099	502	141
0	737836	503	172
0	739846	504	211
0	741469	505	146
0	743077	506	165
0	744462	507	140
0	745753	508	114
0	747149	509	139
0	748963	510	172
0	750457	511	133
0	751701	512	127
0	753051	513	133
0	754377	514	127
0	755935	515	139
0	757514	516	154
0	759228	517	175
0	760563	518	124
0	761847	519	121
0	763042	520	93
0	764301	521	132
0	765499	522	109
0	766886	523	130
0	768613	524	160
0	769824	525	108
0	770939	526	106
0	772280	527	116
0	773862	528	151
0	775505	529	166
0	776879	530	138
0	778249	531	123
0	779386	532	100
0	780832	533	127
0	782090	534	117
0	783536	535	145
0	784738	536	119
0	786364	537	149
0	787674	538	137
0	789034	539	139
0	790239	540	113
0	792136	541	176
0	793411	542	112
0	794981	543	159
0	796464	544	140
0	797947	545	130
0	799332	546	132
0	800660	547	121
0	802042	548	145
0	803318	549	115
0	805048	550	168
0	806375	551	132
0	807565	552	117
0	809048	553	136
0	810276	554	103
0	812283	555	204
0	813748	556	136
0	815249	557	128
0	816390	558	94
0	817964	559	153
0	819325	560	131
0	820817	561	133
0	822299	562	137
0	823782	563	146
0	825007	564	118
0	826388	565	148
0	827680	566	117
0	829246	567	143
0	831087	568	208
0	832810	569	170
0	834156	570	154
0	835510	571	119
0	836855	572	134
0	838238	573	138
0	839584	574	129
0	840919	575	126
0	842481	576	143
0	844039	577	149
0	845718	578	160
0	847125	579	146
0	848305	580	122
0	850007	581	173
0	851468	582	150
0	853339	583	160
0	855109	584	185
0	856722	585	160
0	857799	586	98
0	859278	587	148
0	860651	588	114
0	861950	589	116
0	863431	590	133
0	865173	591	183
0	866667	592	131
0	868148	593	122
0	869870	594	177
0	871354	595	141
0	873130	596	173
0	874627	597	142
0	876207	598	151
0	877393	599	123
0	879031	600	166
0	880548	601	130
0	881814	602	113
0	883369	603	144
0	884896	604	148
0	886376	605	147
0	887642	606	109
0	889021	607	134
0	890772	608	158
0	892437	609	174
0	893770	610	133
0	895332	611	135
0	896925	612	150
0	898142	613	104
0	899614	614	135
0	900984	615	131
0	902515	616	118
0	903652	617	122
0	905228	618	153
0	906581	619	130
0	908059	620	130
0	909602	621	148
0	910895	622	116
0	912617	623	183
0	914382	624	172
0	915912	625	137
0	917164	626	113
0	918653	627	130
0	920006	628	132
0	921590	629	153
0	922912	630	140
0	924208	631	139
0	925358	632	105
0	926828	633	135
0	928256	634	149
0	929676	635	149
0	930898	636	111
0	932322	637	127
0	933503	638	124
0	934669	639	103
0	936081	640	138
0	937755	641	181
0	938840	642	114
0	940257	643	128
0	941722	644	140
0	943024	645	119
0	944428	646	155
0	945711	647	120
0	947275	648	151
0	948858	649	144
0	950272	650	150
0	951667	651	142
0	953234	652	164
0	954643	653	130
0	956099	654	147
0	957766	655	172
0	959235	656	150
0	960987	657	175
0	962714	658	160
0	964188	659	137
0	965326	660	122
0	967070	661	153
0	968770	662	193
0	970402	663	139
0	972027	664	170
0	973415	665	145
0	974881	666	135
0	976119	667	111
0	977473	668	139
0	979115	669	145
0	980523	670	130
0	981840	671	112
0	983268	672	133
0	984642	673	127
0	986425	674	170
0	987676	675	94
0	989156	676	157
0	990625	677	146
0	992231	678	177
0	993724	679	164
0	995088	680	122
0	996698	681	163
0	998252	682	153
0	999964	683	175
0	1001515	684	142
0	1003088	685	146
0	1004467	686	130
0	1006144	687	166
0	1007725	688	142
0	1009121	689	129
0	1010645	690	144
0	1012249	691	139
0	1013415	692	99
0	1014990	693	166
0	1016259	694	138
0	1017495	695	113
0	1018668	696	122
0	1020182	697	145
0	1021509	698	120
0	1022839	699	141
0	1024580	700	147
0	1026087	701	146
0	1027482	702	136
0	1029516	703	223
0	1030840	704	119
0	1032282	705	163
0	1033657	706	126
0	1034993	707	141
0	1036355	708	121
0	1037907	709	145
0	1039330	710	141
0	1040994	711	171
0	1042429	712	116
0	1043886	713	138
0	1045175	714	100
0	1046804	715	140
0	1048358	716	141
0	1049949	717	168
0	1051501	718	149
0	1053057	719	147
0	1054394	720	125
0	1055671	721	112
0	1057278	722	154
0	1058584	723	139
0	1059940	724	121
0	1061274	725	113
0	1062585	726	132
0	1063996	727	142
0	1065417	728	136
0	1066856	729	150
0	1068162	730	110
0	1069767	731	172
0	1071266	732	138
0	1072866	733	145
0	1074012	734	99
0	1075422	735	147
0	1076845	736	134
0	1077946	737	112
0	1079402	738	125
0	1080827	739	136
0	1082560	740	157
0	1083858	741	133
0	1085244	742	121
0	1087109	743	182
0	1088512	744	134
0	1090116	745	153
0	1091328	746	101
0	1093089	747	170
0	1094555	748	133
0	1096075	749	153
0	1097635	750	140
0	1099031	751	125
0	1100385	752	139
0	1101433	753	93
0	1102919	754	147
0	1104367	755	141
0	1106036	756	164
0	1107381	757	122
0	1108949	758	165
0	1110720	759	164
0	1112240	760	144
0	1113558	761	127
0	1115195	762	152
0	1117050	763	184
0	1118877	764	166
0	1120190	765	134
0	1121554	766	139
0	1123081	767	132
0	1124724	768	148
0	1126384	769	175
0	1128197	770	161
0	1129696	771	124
0	1131247	772	154
0	1132658	773	118
0	1134693	774	218
0	1136013	775	129
0	1137428	776	144
0	1138717	777	126
0	1140280	778	154
0	1141576	779	127
0	1143178	780	160
0	1144401	781	98
0	1145918	782	160
0	1147639	783	196
0	1148840	784	104
0	1150178	785	111
0	1151594	786	133
0	1153387	787	180
0	1154972	788	160
0	1156403	789	144
0	1157728	790	97
0	1159146	791	133
0	1160721	792	156
0	1162286	793	142
0	1163714	794	123
0	1165432	795	151
0	1166895	796	148
0	1168244	797	138
0	1169947	798	164
0	1171559	799	147
0	1173290	800	163
0	1174926	801	167
0	1176331	802	136
0	1177984	803	168
0	1179477	804	140
0	1180997	805	157
0	1182945	806	213
0	1184280	807	108
0	1185441	808	114
0	1186826	809	134
0	1188157	810	127
0	1189511	811	119
0	1190412	812	80
0	1191727	813	126
0	1193109	814	117
0	1194401	815	99
0	1196085	816	181
0	1197663	817	145
0	1198910	818	114
0	1200391	819	138
0	1202120	820	171
0	1203410	821	115
0	1204845	822	114
0	1206247	823	127
0	1207989	824	179
0	1209714	825	178
0	1211405	826	176
0	1212989	827	141
0	1214827	828	175
0	1216495	829	173
0	1218140	830	169
0	1219685	831	130
0	1221068	832	134
0	1222315	833	100
0	1223702	834	132
0	1225095	835	128
0	1226482	836	126
0	1227872	837	127
0	1229356	838	129
0	1230934	839	159
0	1232816	840	188
0	1234546	841	165
0	1236099	842	164
0	1237545	843	141
0	1238919	844	139
0	1240429	845	133
0	1242166	846	158
0	1243508	847	117
0	1244649	848	108
0	1245771	849	117
0	1246908	850	113
0	1248308	851	131
0	1249744	852	139
0	1251299	853	150
0	1252575	854	113
0	1254020	855	144
0	1255569	856	146
0	1257015	857	125
0	1258673	858	173
0	1259806	859	112
0	1261283	860	141
0	1262494	861	110
0	1263942	862	133
0	1265579	863	166
0	1267262	864	158
0	1268706	865	143
0	1270044	866	151
0	1271773	867	182
0	1273394	868	166
0	1275031	869	162
0	1276182	870	97
0	1277771	871	150
0	1279454	872	164
0	1281032	873	163
0	1282497	874	146
0	1283852	875	124
0	1285230	876	109
0	1286639	877	146
0	1287918	878	136
0	1289233	879	106
0	1290530	880	139
0	1292246	881	161
0	1293495	882	116
0	1294937	883	143
0	1296081	884	99
0	1297506	885	146
0	1298956	886	135
0	1300029	887	86
0	1301519	888	139
0	1303203	889	183
0	1305144	890	199
0	1306414	891	123
0	1307777	892	134
0	1308931	893	107
0	1310274	894	136
0	1311541	895	140
0	1312959	896	131
0	1314622	897	158
0	1316292	898	145
0	1317766	899	143
0	1319182	900	138
0	1320698	901	151
0	1322189	902	144
0	1324112	903	204
0	1325497	904	136
0	1327004	905	160
0	1328296	906	125
0	1329608	907	111
0	1330938	908	109
0	1332376	909	139
0	1333675	910	131
0	1335411	911	177
0	1337101	912	169
0	1338592	913	142
0	1340066	914	153
0	1341482	915	143
0	1342717	916	110
0	1344022	917	130
0	1345594	918	159
0	1346911	919	122
0	1348170	920	115
0	1349608	921	129
0	1350992	922	131
0	1352526	923	131
0	1354101	924	150
0	1355492	925	142
0	1356715	926	114
0	1358372	927	148
0	1359851	928	150
0	1361133	929	115
0	1362480	930	127
0	1364084	931	139
0	1365351	932	98
0	1366773	933	127
0	1368210	934	138
0	1369744	935	141
0	1371299	936	144
0	1372702	937	132
0	1374185	938	132
0	1375327	939	97
0	1376696	940	133
0	1377776	941	111
0	1379014	942	121
0	1380620	943	159
0	1382220	944	163
0	1383461	945	116
0	1385111	946	169
0	1386495	947	119
0	1387703	948	105
0	1389009	949	115
0	1390245	950	116
0	1391574	951	132
0	1393291	952	168
0	1395042	953	176
0	1396287	954	120
0	1397961	955	161
0	1399001	956	105
0	1400453	957	139
0	1401730	958	134
0	1403246	959	137
0	1404779	960	163
0	1406352	961	168
0	1407906	962	141
0	1409631	963	178
0	1410746	964	88
0	1412198	965	143
0	1413402	966	105
0	1415050	967	165
0	1416190	968	115
0	1417546	969	139
0	1418812	970	124
0	1420440	971	161
0	1422105	972	166
0	1423215	973	99
0	1424612	974	132
0	1425703	975	106
0	1426947	976	121
0	1428276	977	134
0	1429483	978	108
0	1430665	979	111
0	1431890	980	103
0	1433737	981	174
0	1434904	982	110
0	1436118	983	95
0	1437490	984	109
0	1439219	985	164
0	1440313	986	101
0	1441896	987	144
0	1443460	988	153
0	1445201	989	160
0	1446445	990	104
0	1448176	991	168
0	1449676	992	159
0	1451151	993	134
0	1452814	994	162
0	1454330	995	135
0	1455660	996	137
0	1457362	997	171
0	1458720	998	131
0	1460309	999	152
0	1461764	1000	137
0	1463253	1001	154
0	1464959	1002	169
0	1466686	1003	152
0	1468387	1004	158
0	1469743	1005	133
0	1471355	1006	149
0	1472998	1007	174
0	1474322	1008	125
0	1475602	1009	109
0	1477047	1010	135
0	1478753	1011	157
0	1480307	1012	141
0	1481858	1013	146
0	1483063	1014	108
0	1484675	1015	133
0	1486444	1016	172
0	1488020	1017	137
0	1489218	1018	119
0	1490939	1019	188
0	1492439	1020	132
0	1493788	1021	130
0	1495288	1022	157
0	1496996	1023	149
0	1498464	1024	133
0	1500092	1025	159
0	1501538	1026	115
0	1502753	1027	130
0	1504416	1028	182
0	1505893	1029	140
0	1507508	1030	147
0	1509179	1031	158
0	1510878	1032	170
0	1512121	1033	132
0	1513255	1034	87
0	1514531	1035	125
0	1516245	1036	163
0	1517767	1037	147
0	1519208	1038	146
0	1520905	1039	174
0	1522486	1040	157
0	1523906	1041	145
0	1525447	1042	152
0	1527221	1043	181
0	1528618	1044	134
0	1529996	1045	141
0	1531319	1046	126
0	1532812	1047	124
0	1534445	1048	160
0	1535882	1049	140
0	1537502	1050	164
0	1538998	1051	149
0	1540679	1052	180
0	1541946	1053	130
0	1543413	1054	146
0	1545048	1055	152
0	1546786	1056	175
0	1548217	1057	136
0	1549491	1058	115
0	1550814	1059	118
0	1552506	1060	162
0	1553851	1061	144
0	1555412	1062	158
0	1556955	1063	174
0	1558687	1064	171
0	1559971	1065	127
0	1561351	1066	137
0	1563013	1067	171
0	1564421	1068	137
0	1565761	1069	119
0	1567034	1070	101
0	1568342	1071	143
0	1570130	1072	171
0	1571881	1073	162
0	1573443	1074	157
0	1574855	1075	143
0	1576340	1076	144
0	1577822	1077	143
0	1579641	1078	196
0	1580957	1079	123
0	1582137	1080	112
0	1583868	1081	170
0	1584938	1082	93
0	1586695	1083	150
0	1588018	1084	132
0	1589556	1085	137
0	1591095	1086	134
0	1592717	1087	153
0	1594293	1088	139
0	1595806	1089	140
0	1597573	1090	165
0	1599109	1091	161
0	1600381	1092	125
0	1601892	1093	144
0	1603355	1094	158
0	1604970	1095	146
0	1606455	1096	150
0	1607827	1097	121
0	1609272	1098	156
0	1610557	1099	118
0	1611835	1100	130
0	1613259	1101	131
0	1614823	1102	147
0	1616495	1103	161
0	1617941	1104	145
0	1619626	1105	180
0	1620992	1106	143
0	1622507	1107	134
0	1623527	1108	85
0	1624877	1109	119
0	1626317	1110	132
0	1627926	1111	168
0	1629430	1112	155
0	1631086	1113	167
0	1632701	1114	174
0	1634274	1115	164
0	1635853	1116	146
0	1637229	1117	129
0	1638752	1118	126
0	1640250	1119	147
0	1641584	1120	124
0	1642768	1121	99
0	1644244	1122	137
0	1645606	1123	147
0	1646877	1124	110
0	1648084	1125	118
0	1649281	1126	108
0	1650956	1127	142
0	1652609	1128	136
0	1654097	1129	145
0	1655372	1130	117
0	1656807	1131	134
0	1658569	1132	199
0	1660295	1133	183
0	1661682	1134	132
0	1662929	1135	118
0	1664075	1136	109
0	1665583	1137	143
0	1667136	1138	146
0	1668578	1139	147
0	1670053	1140	153
0	1671786	1141	180
0	1673099	1142	118
0	1674384	1143	122
0	1675569	1144	108
0	1676877	1145	145
0	1678367	1146	133
0	1679707	1147	115
0	1680894	1148	110
0	1682321	1149	126
0	1683896	1150	145
0	1685788	1151	197
0	1687112	1152	125
0	1688418	1153	115
0	1689879	1154	148
0	1691299	1155	143
0	1692606	1156	128
0	1693913	1157	132
0	1695689	1158	153
0	1696997	1159	119
0	1698745	1160	198
0	1700148	1161	152
0	1701592	1162	137
0	1702952	1163	127
0	1704479	1164	140
0	1706084	1165	152
0	1707770	1166	175
0	1709074	1167	127
0	1710505	1168	136
0	1711928	1169	148
0	1713564	1170	166
0	1715193	1171	156
0	1716995	1172	179
0	1718504	1173	140
0	1720106	1174	139
0	1721295	1175	110
0	1722825	1176	137
0	1724248	1177	130
0	1725688	1178	121
0	1726996	1179	105
0	1728614	1180	156
0	1730606	1181	211
0	1732214	1182	169
0	1733488	1183	115
0	1734982	1184	123
0	1736553	1185	158
0	1738057	1186	133
0	1739403	1187	127
0	1740955	1188	151
0	1742281	1189	113
0	1743654	1190	123
0	1745060	1191	131
0	1746655	1192	152
0	1747898	1193	120
0	1749206	1194	117
0	1750454	1195	115
0	1751773	1196	136
0	1753171	1197	123
0	1754528	1198	120
0	1756021	1199	144
0	1757384	1200	153
0	1759016	1201	171
0	1760680	1202	163
0	1761991	1203	126
0	1763402	1204	130
0	1764609	1205	112
0	1766079	1206	143
0	1767590	1207	142
0	1769217	1208	146
0	1770706	1209	142
0	1772486	1210	190
0	1774060	1211	149
0	1775743	1212	160
0	1777155	1213	147
0	1778759	1214	177
0	1780240	1215	140
0	1781579	1216	130
0	1783127	1217	147
0	1784582	1218	140
0	1785962	1219	141
0	1787271	1220	121
0	1788863	1221	135
0	1790032	1222	104
0	1791362	1223	135
0	1792787	1224	118
0	1793752	1225	88
0	1795107	1226	120
0	1796376	1227	126
0	1797979	1228	152
0	1799636	1229	156
0	1801290	1230	174
0	1802975	1231	176
0	1804633	1232	155
0	1806225	1233	161
0	1808271	1234	201
0	1809240	1235	98
0	1810587	1236	136
0	1811846	1237	118
0	1813267	1238	136
0	1814287	1239	87
0	1815643	1240	150
0	1817160	1241	154
0	1818839	1242	174
0	1820464	1243	160
0	1821663	1244	126
0	1823217	1245	167
0	1824693	1246	141
0	1826266	1247	160
0	1827462	1248	117
0	1828724	1249	127
0	1830402	1250	144
0	1831974	1251	131
0	1833506	1252	141
0	1835004	1253	121
0	1836571	1254	132
0	1837727	1255	109
0	1839005	1256	103
0	1840877	1257	205
0	1842248	1258	130
0	1843643	1259	118
0	1845052	1260	143
0	1846341	1261	124
0	1847769	1262	127
0	1849072	1263	124
0	1850646	1264	161
0	1852302	1265	169
0	1854049	1266	176
0	1855204	1267	100
0	1857031	1268	182
0	1858433	1269	137
0	1860122	1270	167
0	1861517	1271	130
0	1863167	1272	141
0	1864495	1273	111
0	1866247	1274	181
0	1867693	1275	107
0	1869296	1276	146
0	1871067	1277	168
0	1872205	1278	109
0	1873653	1279	153
0	1875248	1280	165
0	1876446	1281	123
0	1877655	1282	104
0	1879164	1283	164
0	1880642	1284	133
0	1881944	1285	125
0	1883659	1286	168
0	1884955	1287	127
0	1886355	1288	129
0	1887574	1289	124
0	1889248	1290	168
0	1890848	1291	169
0	1892392	1292	145
0	1893938	1293	163
0	1895269	1294	134
0	1896717	1295	137
0	1898389	1296	149
0	1899901	1297	157
0	1901358	1298	160
0	1902928	1299	159
0	1904405	1300	159
0	1906048	1301	170
0	1907425	1302	116
0	1909053	1303	171
0	1910848	1304	188
0	1912601	1305	164
0	1914365	1306	169
0	1916137	1307	161
0	1917849	1308	149
0	1919264	1309	138
0	1920945	1310	171
0	1922471	1311	145
0	1923788	1312	146
0	1925164	1313	129
0	1926616	1314	149
0	1928255	1315	166
0	1930014	1316	154
0	1931688	1317	167
0	1932863	1318	110
0	1934255	1319	139
0	1935888	1320	157
0	1937525	1321	166
0	1938869	1322	131
0	1940371	1323	155
0	1941926	1324	134
0	1943435	1325	152
0	1945129	1326	159
0	1946403	1327	119
0	1947815	1328	139
0	1949158	1329	136
0	1951022	1330	172
0	1952380	1331	137
0	1953631	1332	108
0	1955152	1333	152
0	1956561	1334	132
0	1957991	1335	131
0	1959314	1336	114
0	1960696	1337	115
0	1962066	1338	121
0	1963275	1339	110
0	1965059	1340	180
0	1966757	1341	169
0	1968423	1342	171
0	1969823	1343	147
0	1971146	1344	120
0	1972715	1345	146
0	1974256	1346	166
0	1976029	1347	164
0	1977415	1348	139
0	1978650	1349	114
0	1980259	1350	157
0	1981772	1351	136
0	1983296	1352	145
0	1984810	1353	131
0	1986186	1354	151
0	1987728	1355	125
0	1989145	1356	144
0	1990698	1357	140
0	1992537	1358	200
0	1994016	1359	124
0	1995550	1360	146
0	1996927	1361	108
0	1998207	1362	117
0	1999435	1363	129
0	2001048	1364	148
0	2002532	1365	159
0	2004153	1366	160
0	2005562	1367	142
0	2007303	1368	152
0	2008528	1369	116
0	2009895	1370	133
0	2011318	1371	138
0	2012785	1372	130
0	2014201	1373	141
0	2015754	1374	164
0	2017010	1375	113
0	2017991	1376	94
0	2019346	1377	132
0	2020909	1378	156
0	2022479	1379	149
0	2023705	1380	118
0	2025163	1381	151
0	2026296	1382	106
0	2027816	1383	159
0	2029271	1384	146
0	2030654	1385	144
0	2031734	1386	99
0	2032939	1387	108
0	2034319	1388	121
0	2035846	1389	130
0	2037301	1390	143
0	2038455	1391	101
0	2039896	1392	118
0	2041278	1393	145
0	2042991	1394	184
0	2044381	1395	131
0	2045661	1396	129
0	2047173	1397	145
0	2048455	1398	115
0	2049883	1399	137
0	2051299	1400	140
0	2053039	1401	165
0	2054660	1402	164
0	2055935	1403	112
0	2057115	1404	117
0	2058610	1405	132
0	2059733	1406	90
0	2061416	1407	168
0	2062885	1408	150
0	2064181	1409	127
0	2065675	1410	144
0	2067114	1411	134
0	2068573	1412	130
0	2070134	1413	142
0	2071507	1414	144
0	2072953	1415	145
0	2074140	1416	90
0	2075487	1417	124
0	2076590	1418	104
0	2077796	1419	103
0	2079313	1420	145
0	2080510	1421	112
0	2082252	1422	189
0	2083614	1423	131
0	2085273	1424	178
0	2086685	1425	139
0	2088070	1426	138
0	2089498	1427	133
0	2090798	1428	119
0	2092252	1429	121
0	2093882	1430	174
0	2095360	1431	151
0	2096946	1432	133
0	2098377	1433	140
0	2099447	1434	95
0	2100894	1435	140
0	2102419	1436	142
0	2103946	1437	144
0	2105669	1438	154
0	2107434	1439	184
0	2109124	1440	170
0	2110360	1441	111
0	2112000	1442	149
0	2113544	1443	153
0	2115096	1444	153
0	2116594	1445	145
0	2118345	1446	170
0	2119669	1447	125
0	2121247	1448	157
0	2122823	1449	157
0	2124069	1450	138
0	2125541	1451	145
0	2127244	1452	162
0	2128934	1453	175
0	2130398	1454	137
0	2131844	1455	131
0	2133152	1456	127
0	2134535	1457	120
0	2136137	1458	165
0	2137356	1459	116
0	2139009	1460	167
0	2140424	1461	124
0	2141857	1462	110
0	2143219	1463	127
0	2144845	1464	155
0	2146021	1465	121
0	2147321	1466	131
0	2148659	1467	117
0	2149933	1468	129
0	2151310	1469	122
0	2153054	1470	184
0	2154075	1471	96
0	2155566	1472	142
0	2156797	1473	126
0	2158118	1474	124
0	2159551	1475	138
0	2161222	1476	174
0	2162498	1477	127
0	2163762	1478	129
0	2164969	1479	114
0	2166634	1480	167
0	2168180	1481	167
0	2169711	1482	146
0	2171027	1483	129
0	2172249	1484	133
0	2174055	1485	183
0	2175102	1486	100
0	2176420	1487	119
0	2177756	1488	137
0	2179264	1489	169
0	2180638	1490	130
0	2182214	1491	155
0	2183531	1492	138
0	2185055	1493	139
0	2186512	1494	140
0	2187985	1495	150
0	2189711	1496	209
0	2190949	1497	125
0	2191989	1498	97
0	2193233	1499	133
0	2194753	1500	144
0	2196672	1501	190
0	2198372	1502	163
0	2199816	1503	155
0	2201341	1504	160
0	2203179	1505	205
0	2204766	1506	134
0	2206363	1507	168
0	2208082	1508	164
0	2209476	1509	135
0	2211191	1510	165
0	2212590	1511	140
0	2213947	1512	134
0	2215450	1513	146
0	2216759	1514	124
0	2218368	1515	166
0	2219619	1516	140
0	2221036	1517	148
0	2222495	1518	140
0	2223816	1519	132
0	2225098	1520	136
0	2226379	1521	110
0	2227850	1522	140
0	2229257	1523	122
0	2230437	1524	105
0	2231875	1525	151
0	2233390	1526	150
0	2234846	1527	131
0	2236123	1528	130
0	2237486	1529	134
0	2238800	1530	108
0	2240227	1531	120
0	2242098	1532	172
0	2243520	1533	117
0	2245137	1534	166
0	2246811	1535	171
0	2248346	1536	160
0	2249895	1537	168
0	2251282	1538	132
0	2252991	1539	142
0	2254186	1540	101
0	2255464	1541	111
0	2256816	1542	113
0	2258458	1543	139
0	2260138	1544	145
0	2261768	1545	171
0	2263147	1546	126
0	2264575	1547	133
0	2266000	1548	130
0	2267393	1549	118
0	2268850	1550	139
0	2270305	1551	110
0	2271917	1552	145
0	2273466	1553	140
0	2274944	1554	135
0	2276596	1555	161
0	2278009	1556	140
0	2279437	1557	131
0	2280822	1558	138
0	2282210	1559	137
0	2283721	1560	149
0	2285314	1561	160
0	2286729	1562	140
0	2288120	1563	118
0	2289546	1564	137
0	2290957	1565	138
0	2292643	1566	171
0	2294408	1567	164
0	2296241	1568	178
0	2297726	1569	134
0	2299207	1570	161
0	2300889	1571	173
0	2302409	1572	159
0	2303936	1573	140
0	2305421	1574	124
0	2306812	1575	134
0	2308402	1576	161
0	2310192	1577	173
0	2311608	1578	129
0	2312915	1579	122
0	2314334	1580	123
0	2316053	1581	184
0	2317451	1582	111
0	2319063	1583	165
0	2320779	1584	147
0	2322339	1585	127
0	2324173	1586	167
0	2325418	1587	124
0	2326848	1588	135
0	2328540	1589	173
0	2329429	1590	79
0	2330886	1591	144
0	2332033	1592	108
0	2333398	1593	138
0	2334988	1594	151
0	2336372	1595	121
0	2337712	1596	117
0	2339085	1597	144
0	2340230	1598	108
0	2341942	1599	173
0	2343227	1600	121
0	2344556	1601	104
0	2345962	1602	135
0	2347278	1603	119
0	2349053	1604	174
0	2350629	1605	137
0	2352011	1606	119
0	2353325	1607	127
0	2354658	1608	116
0	2356330	1609	165
0	2357618	1610	114
0	2358807	1611	100
0	2360360	1612	150
0	2361921	1613	150
0	2362847	1614	73