version 3
run SimulationTime-70-20240107-16:15:45-15604
attr configname SimulationTime
attr datetime 20240107-16:15:45
attr datetimef 20240107-161545
attr experiment SimulationTime
attr inifile omnetpp.ini
attr iterationvars ""
attr iterationvarsd ""
attr iterationvarsf ""
attr measurement ""
attr network System
attr processid 15604
attr repetition 70
attr replication #70
attr resultdir results
attr runnumber 70
attr seedset 70
config **.cpu.rate 1000
config **.hd.rateProcessing 250
config **.webServer.web_server_rate 100
config **.p1 0.35
config **.p2 0.40
config network System
config num-rngs 4
config **.cpu.rng-0 0
config **.cpu.rng-1 1
config **.hd.rng-0 2
config **.webServer.rng-0 3
config repeat 500
config seed-set 70
config sim-time-limit 10000s
config **.client.numClients 40

vector 0 System.server.cpu requestCounterStat:vector ETV
attr recordingmode vector
attr source requestCounter
vector 1 System.server.hd utilizationHdStat:vector ETV
attr recordingmode vector
attr source utilizationHd
vector 2 System.server.cpu utilizationCpuStat:vector ETV
attr recordingmode vector
attr source utilizationCpu
vector 3 System.webServer utilizationWsStat:vector ETV
attr recordingmode vector
attr source utilizationWs
0	1938	1	205
0	3306	2	127
0	4840	3	145
0	6490	4	171
0	7851	5	144
0	9634	6	212
0	10738	7	99
0	12264	8	137
0	13586	9	107
0	15074	10	140
0	16842	11	161
0	18116	12	115
0	19745	13	152
0	21708	14	198
0	22958	15	103
0	24614	16	141
0	25721	17	110
0	27158	18	124
0	28702	19	143
0	30486	20	170
0	31908	21	121
0	33501	22	158
0	34705	23	101
0	36189	24	137
0	37658	25	134
0	39320	26	177
0	40685	27	140
0	42075	28	135
0	43374	29	134
0	44913	30	129
0	46770	31	174
0	48705	32	180
0	50498	33	184
0	52167	34	154
0	53585	35	139
0	55279	36	177
0	56783	37	141
0	58248	38	152
0	59654	39	147
0	60989	40	109
0	62403	41	135
0	63817	42	135
0	65084	43	106
0	66355	44	106
0	67853	45	159
0	69225	46	123
0	70928	47	160
0	71903	48	86
0	72976	49	100
0	74524	50	162
0	76230	51	165
0	77806	52	149
0	79309	53	146
0	80518	54	116
0	81792	55	131
0	83439	56	182
0	84827	57	111
0	86449	58	153
0	87719	59	119
0	89072	60	123
0	90257	61	118
0	91816	62	152
0	93263	63	134
0	94769	64	133
0	96093	65	125
0	97146	66	90
0	98572	67	143
0	99889	68	120
0	101305	69	139
0	102927	70	158
0	104386	71	144
0	106111	72	174
0	107546	73	158
0	109071	74	126
0	110593	75	147
0	112110	76	150
0	113585	77	138
0	115116	78	144
0	116779	79	166
0	118236	80	131
0	119342	81	127
0	120751	82	124
0	122189	83	143
0	123842	84	156
0	125239	85	144
0	126751	86	163
0	128408	87	162
0	129805	88	122
0	131142	89	118
0	132395	90	97
0	134100	91	166
0	135470	92	119
0	137112	93	155
0	138766	94	169
0	140236	95	149
0	141452	96	115
0	142878	97	135
0	144696	98	197
0	146206	99	155
0	147317	100	121
0	148802	101	134
0	150108	102	129
0	151240	103	109
0	152519	104	120
0	154190	105	158
0	155455	106	126
0	156929	107	139
0	158060	108	114
0	159393	109	136
0	160603	110	116
0	161867	111	115
0	163284	112	150
0	164768	113	133
0	166421	114	156
0	167522	115	94
0	168926	116	115
0	169922	117	85
0	171351	118	126
0	172976	119	140
0	174263	120	111
0	175990	121	180
0	177172	122	111
0	178328	123	109
0	179572	124	109
0	180968	125	119
0	182220	126	115
0	183727	127	150
0	185341	128	139
0	186843	129	149
0	188316	130	127
0	190001	131	170
0	191402	132	148
0	192904	133	155
0	194162	134	119
0	195861	135	178
0	197148	136	118
0	198800	137	153
0	200533	138	170
0	202206	139	162
0	203643	140	135
0	205038	141	144
0	206479	142	138
0	208014	143	158
0	209463	144	136
0	211225	145	167
0	212651	146	131
0	214244	147	148
0	215702	148	141
0	217113	149	154
0	218203	150	108
0	219714	151	152
0	221055	152	126
0	222713	153	155
0	224397	154	165
0	225940	155	154
0	227458	156	135
0	229068	157	155
0	230534	158	149
0	231755	159	106
0	233214	160	137
0	234415	161	112
0	235743	162	129
0	237060	163	120
0	238563	164	158
0	239965	165	127
0	241564	166	160
0	242907	167	128
0	244392	168	136
0	245717	169	122
0	247480	170	185
0	248556	171	103
0	249613	172	102
0	251425	173	171
0	252926	174	146
0	254416	175	137
0	255760	176	113
0	257120	177	113
0	258617	178	156
0	260062	179	152
0	261546	180	116
0	263089	181	138
0	264634	182	136
0	266098	183	137
0	267687	184	146
0	269283	185	153
0	270774	186	136
0	272031	187	106
0	273417	188	125
0	274499	189	95
0	275998	190	133
0	277433	191	126
0	279122	192	172
0	280304	193	127
0	281875	194	158
0	283291	195	133
0	284447	196	125
0	286045	197	161
0	287448	198	138
0	288863	199	140
0	290375	200	138
0	291871	201	143
0	293437	202	131
0	294868	203	122
0	296245	204	142
0	297817	205	153
0	299249	206	143
0	300624	207	136
0	302252	208	163
0	303781	209	150
0	305134	210	149
0	306783	211	168
0	308031	212	103
0	309856	213	168
0	311308	214	143
0	312879	215	138
0	314286	216	130
0	315871	217	148
0	317693	218	159
0	319175	219	147
0	320734	220	159
0	321787	221	86
0	323374	222	158
0	324615	223	126
0	326160	224	142
0	327133	225	94
0	328618	226	142
0	330307	227	154
0	332079	228	155
0	333442	229	120
0	334820	230	120
0	336261	231	128
0	337630	232	136
0	338961	233	118
0	340656	234	144
0	341982	235	119
0	343618	236	159
0	345269	237	170
0	346638	238	136
0	347949	239	126
0	349529	240	138
0	350942	241	140
0	352244	242	133
0	353566	243	119
0	354957	244	128
0	356110	245	110
0	357038	246	85
0	358248	247	131
0	359718	248	143
0	361235	249	152
0	362971	250	160
0	364617	251	167
0	366328	252	162
0	367758	253	139
0	369245	254	162
0	370769	255	121
0	372550	256	168
0	374146	257	155
0	375789	258	148
0	377277	259	133
0	378571	260	118
0	379776	261	110
0	381312	262	139
0	382858	263	155
0	384205	264	132
0	385937	265	159
0	387351	266	131
0	388597	267	115
0	390164	268	146
0	391540	269	119
0	392762	270	124
0	394449	271	150
0	396004	272	164
0	397452	273	115
0	398842	274	135
0	400350	275	129
0	401443	276	114
0	402794	277	108
0	403936	278	93
0	405271	279	124
0	406892	280	163
0	408463	281	152
0	409772	282	126
0	410950	283	115
0	411964	284	83
0	413350	285	129
0	415039	286	148
0	416814	287	174
0	418231	288	134
0	419599	289	133
0	420951	290	144
0	422461	291	145
0	423853	292	125
0	425593	293	175
0	427236	294	172
0	428798	295	149
0	430192	296	141
0	431647	297	144
0	433182	298	146
0	434833	299	150
0	436273	300	120
0	437576	301	100
0	439234	302	161
0	440961	303	150
0	442362	304	150
0	443827	305	126
0	445485	306	179
0	446732	307	130
0	448254	308	149
0	449566	309	147
0	450810	310	124
0	452520	311	175
0	454352	312	169
0	456053	313	152
0	457573	314	157
0	458895	315	109
0	460195	316	123
0	461298	317	114
0	462679	318	126
0	464163	319	161
0	465531	320	142
0	467177	321	161
0	468623	322	169
0	469875	323	125
0	471454	324	142
0	472772	325	123
0	474239	326	138
0	476258	327	216
0	478007	328	176
0	479569	329	137
0	480985	330	136
0	482280	331	110
0	483881	332	140
0	485648	333	178
0	487167	334	152
0	488648	335	138
0	490271	336	164
0	491953	337	173
0	493485	338	151
0	495099	339	157
0	496588	340	131
0	498441	341	196
0	499860	342	138
0	501243	343	146
0	502856	344	164
0	504484	345	145
0	506216	346	183
0	507681	347	142
0	508866	348	106
0	510543	349	154
0	512329	350	176
0	513690	351	114
0	515038	352	115
0	516212	353	125
0	517663	354	140
0	519278	355	166
0	521071	356	172
0	522464	357	138
0	524236	358	183
0	525577	359	128
0	526860	360	119
0	528296	361	137
0	529747	362	136
0	531349	363	145
0	533189	364	189
0	534245	365	93
0	535837	366	163
0	537345	367	147
0	538917	368	153
0	540181	369	117
0	541720	370	131
0	543246	371	155
0	544920	372	145
0	546410	373	133
0	547832	374	137
0	549227	375	138
0	550675	376	137
0	552519	377	187
0	554166	378	152
0	555423	379	124
0	556875	380	126
0	558016	381	106
0	559435	382	144
0	560893	383	125
0	562451	384	153
0	563983	385	159
0	565550	386	160
0	567036	387	163
0	568666	388	145
0	570447	389	176
0	571769	390	134
0	573254	391	142
0	575057	392	178
0	576498	393	122
0	578031	394	140
0	579311	395	113
0	580673	396	139
0	581945	397	113
0	583157	398	117
0	584390	399	110
0	585967	400	143
0	587324	401	122
0	589081	402	174
0	590356	403	116
0	591640	404	121
0	592873	405	104
0	594538	406	156
0	596262	407	177
0	597838	408	159
0	599353	409	148
0	601024	410	147
0	602289	411	126
0	603391	412	111
0	604896	413	154
0	606216	414	131
0	607683	415	150
0	609256	416	140
0	610652	417	121
0	612207	418	142
0	613434	419	100
0	615144	420	158
0	616698	421	147
0	618278	422	159
0	620086	423	165
0	621654	424	155
0	623322	425	173
0	624721	426	116
0	626233	427	137
0	627657	428	139
0	628839	429	117
0	630546	430	173
0	631818	431	133
0	633197	432	130
0	634709	433	145
0	636198	434	146
0	637502	435	115
0	638871	436	122
0	640212	437	118
0	641523	438	142
0	642977	439	145
0	644391	440	136
0	645623	441	109
0	647100	442	136
0	648856	443	185
0	650694	444	179
0	651886	445	109
0	652973	446	78
0	654498	447	138
0	656206	448	191
0	657358	449	125
0	659129	450	177
0	660299	451	103
0	661644	452	124
0	663395	453	150
0	664665	454	113
0	666009	455	133
0	667383	456	141
0	668579	457	109
0	670351	458	189
0	671717	459	159
0	673265	460	160
0	674567	461	131
0	675866	462	138
0	677116	463	129
0	678577	464	130
0	680293	465	167
0	681582	466	114
0	682781	467	118
0	683977	468	119
0	685669	469	145
0	687402	470	173
0	688737	471	126
0	690309	472	163
0	691710	473	142
0	693023	474	124
0	694557	475	155
0	696240	476	168
0	697815	477	148
0	699539	478	165
0	701061	479	163
0	702752	480	153
0	704323	481	134
0	705769	482	127
0	707580	483	174
0	709092	484	141
0	710080	485	95
0	711639	486	152
0	712968	487	114
0	714338	488	135
0	715778	489	147
0	717267	490	131
0	718936	491	168
0	720314	492	113
0	721764	493	137
0	723316	494	131
0	724554	495	109
0	725951	496	104
0	727072	497	96
0	728552	498	137
0	729868	499	113
0	731182	500	130
0	732666	501	147
0	734262	502	147
0	735342	503	119
0	736907	504	146
0	738645	505	165
0	739940	506	118
0	741235	507	124
0	742392	508	108
0	744052	509	133
0	745405	510	127
0	747025	511	149
0	748449	512	141
0	750439	513	221
0	751848	514	138
0	753793	515	212
0	755249	516	133
0	756751	517	147
0	757995	518	109
0	759279	519	125
0	760853	520	156
0	762624	521	172
0	763880	522	125
0	765087	523	122
0	766657	524	151
0	768369	525	173
0	769794	526	134
0	770921	527	100
0	772273	528	133
0	773522	529	128
0	775210	530	172
0	777012	531	193
0	778301	532	122
0	779791	533	147
0	781440	534	164
0	782734	535	119
0	783942	536	113
0	785597	537	150
0	787301	538	163
0	788664	539	132
0	789938	540	126
0	791167	541	106
0	792765	542	161
0	793864	543	108
0	795279	544	140
0	796583	545	113
0	797883	546	115
0	799218	547	138
0	800661	548	130
0	802260	549	148
0	803926	550	138
0	805388	551	131
0	806961	552	144
0	808468	553	136
0	809776	554	115
0	811140	555	145
0	812780	556	153
0	814165	557	136
0	815539	558	129
0	816980	559	162
0	818591	560	177
0	819922	561	138
0	821206	562	121
0	822748	563	147
0	824532	564	169
0	826029	565	138
0	827656	566	170
0	829207	567	132
0	830780	568	160
0	832370	569	149
0	833832	570	128
0	835428	571	157
0	837225	572	176
0	838886	573	152
0	840292	574	117
0	841923	575	160
0	843569	576	151
0	844821	577	113
0	846123	578	113
0	847568	579	134
0	849017	580	147
0	850432	581	120
0	851776	582	123
0	853552	583	171
0	855222	584	159
0	856762	585	143
0	858160	586	135
0	859603	587	176
0	860576	588	96
0	861910	589	133
0	863251	590	129
0	864590	591	132
0	865893	592	110
0	867519	593	163
0	868844	594	132
0	870182	595	107
0	871461	596	120
0	873210	597	186
0	874892	598	187
0	876396	599	157
0	878149	600	175
0	879812	601	144
0	881405	602	142
0	882952	603	154
0	884764	604	189
0	886041	605	104
0	887505	606	141
0	889091	607	149
0	890452	608	126
0	891883	609	136
0	893268	610	125
0	895022	611	171
0	896498	612	159
0	897724	613	121
0	899481	614	172
0	900870	615	132
0	902624	616	169
0	904034	617	131
0	905559	618	142
0	907206	619	162
0	908566	620	126
0	910063	621	154
0	911512	622	136
0	912957	623	130
0	914351	624	127
0	915706	625	122
0	917079	626	142
0	918496	627	132
0	919737	628	110
0	921091	629	117
0	922751	630	170
0	924103	631	129
0	926137	632	183
0	927623	633	145
0	929390	634	174
0	930957	635	158
0	932322	636	132
0	933720	637	127
0	935173	638	134
0	936681	639	143
0	937772	640	109
0	939040	641	117
0	940181	642	108
0	941516	643	130
0	942770	644	111
0	944322	645	161
0	945902	646	147
0	947112	647	117
0	948416	648	129
0	950226	649	151
0	951841	650	161
0	953730	651	206
0	955125	652	142
0	956839	653	173
0	958751	654	185
0	960109	655	131
0	961207	656	103
0	962835	657	169
0	964181	658	127
0	965664	659	136
0	966758	660	102
0	968085	661	140
0	969486	662	122
0	971063	663	154
0	972899	664	181
0	974233	665	123
0	975500	666	114
0	977327	667	186
0	978739	668	135
0	980063	669	123
0	981543	670	136
0	982664	671	104
0	983987	672	134
0	985156	673	106
0	986706	674	165
0	988264	675	141
0	989814	676	153
0	991229	677	132
0	992941	678	163
0	994683	679	171
0	996041	680	132
0	997679	681	157
0	998847	682	113
0	1000602	683	154
0	1002364	684	155
0	1003835	685	138
0	1005173	686	115
0	1006337	687	109
0	1007770	688	132
0	1009472	689	165
0	1010899	690	131
0	1012127	691	121
0	1013626	692	146
0	1015079	693	112
0	1017024	694	212
0	1018546	695	135
0	1019963	696	132
0	1021367	697	133
0	1022824	698	140
0	1024314	699	131
0	1025628	700	122
0	1026918	701	123
0	1028121	702	120
0	1029573	703	159
0	1030902	704	128
0	1032158	705	131
0	1033331	706	108
0	1034866	707	128
0	1036092	708	113
0	1037726	709	167
0	1039565	710	165
0	1041126	711	158
0	1042622	712	147
0	1044340	713	141
0	1045678	714	125
0	1047308	715	139
0	1049016	716	147
0	1050433	717	144
0	1051998	718	158
0	1053485	719	146
0	1054948	720	143
0	1056501	721	152
0	1057851	722	111
0	1059446	723	154
0	1060959	724	176
0	1062864	725	184
0	1064133	726	112
0	1065472	727	122
0	1066815	728	134
0	1068558	729	170
0	1069570	730	84
0	1070683	731	84
0	1072030	732	118
0	1073342	733	115
0	1074574	734	119
0	1076087	735	140
0	1077522	736	134
0	1079070	737	157
0	1080670	738	145
0	1082049	739	138
0	1083411	740	118
0	1084902	741	130
0	1086434	742	143
0	1087974	743	147
0	1089516	744	151
0	1091010	745	135
0	1092593	746	166
0	1094321	747	185
0	1095879	748	131
0	1097191	749	121
0	1098588	750	123
0	1100135	751	154
0	1101384	752	122
0	1103015	753	160
0	1104522	754	150
0	1106122	755	141
0	1107602	756	145
0	1108882	757	137
0	1110534	758	157
0	1111937	759	154
0	1113311	760	138
0	1114814	761	148
0	1116085	762	108
0	1117746	763	160
0	1119381	764	172
0	1120821	765	131
0	1122206	766	116
0	1123665	767	132
0	1125033	768	133
0	1126242	769	114
0	1127871	770	159
0	1129460	771	140
0	1130945	772	128
0	1132359	773	123
0	1133719	774	137
0	1135101	775	139
0	1136065	776	97
0	1137714	777	150
0	1139410	778	163
0	1140609	779	110
0	1142183	780	142
0	1143752	781	162
0	1145384	782	157
0	1146815	783	128
0	1148161	784	135
0	1149608	785	120
0	1151140	786	147
0	1152498	787	123
0	1154174	788	153
0	1155808	789	159
0	1157014	790	106
0	1158420	791	147
0	1159667	792	116
0	1160881	793	109
0	1162351	794	135
0	1163565	795	123
0	1165249	796	185
0	1166662	797	136
0	1167718	798	97
0	1169169	799	150
0	1170819	800	158
0	1172339	801	157
0	1173918	802	142
0	1175331	803	126
0	1176878	804	158
0	1178558	805	151
0	1179991	806	138
0	1181763	807	177
0	1183153	808	117
0	1184662	809	136
0	1186257	810	153
0	1187494	811	112
0	1189118	812	145
0	1190633	813	142
0	1192343	814	163
0	1193916	815	160
0	1195265	816	140
0	1196514	817	116
0	1198229	818	154
0	1199930	819	180
0	1201222	820	128
0	1202506	821	117
0	1204267	822	172
0	1205526	823	112
0	1207283	824	168
0	1208896	825	150
0	1210136	826	121
0	1211784	827	149
0	1213278	828	145
0	1214578	829	113
0	1216002	830	150
0	1217486	831	141
0	1218814	832	131
0	1220238	833	111
0	1221720	834	157
0	1223313	835	166
0	1225022	836	152
0	1226478	837	133
0	1227751	838	124
0	1229085	839	111
0	1230399	840	142
0	1231880	841	140
0	1232957	842	100
0	1234305	843	117
0	1235436	844	112
0	1236986	845	161
0	1238411	846	136
0	1240079	847	153
0	1241652	848	160
0	1243198	849	135
0	1244826	850	160
0	1246367	851	144
0	1247851	852	149
0	1249147	853	123
0	1250510	854	136
0	1252185	855	166
0	1253446	856	124
0	1255069	857	174
0	1256526	858	144
0	1258084	859	147
0	1259615	860	153
0	1260958	861	134
0	1262675	862	154
0	1264309	863	161
0	1265775	864	123
0	1267464	865	184
0	1268990	866	157
0	1270532	867	145
0	1272131	868	166
0	1273494	869	114
0	1274986	870	138
0	1276499	871	146
0	1277957	872	123
0	1279364	873	142
0	1280735	874	124
0	1282358	875	176
0	1283815	876	140
0	1285218	877	140
0	1286603	878	132
0	1288182	879	156
0	1289541	880	151
0	1291241	881	173
0	1292596	882	126
0	1294314	883	173
0	1295917	884	154
0	1297295	885	125
0	1298554	886	118
0	1299601	887	116
0	1300864	888	110
0	1302211	889	122
0	1303742	890	141
0	1304997	891	114
0	1306371	892	119
0	1307871	893	153
0	1309643	894	197
0	1310832	895	112
0	1312189	896	144
0	1313877	897	157
0	1315071	898	103
0	1316622	899	152
0	1318003	900	131
0	1319341	901	117
0	1321076	902	182
0	1322836	903	169
0	1324362	904	157
0	1325749	905	128
0	1327107	906	121
0	1328375	907	115
0	1329593	908	119
0	1331095	909	137
0	1332553	910	124
0	1334026	911	156
0	1335810	912	173
0	1337308	913	145
0	1339008	914	171
0	1340444	915	153
0	1341679	916	106
0	1342789	917	101
0	1344105	918	139
0	1345488	919	122
0	1347045	920	135
0	1348743	921	195
0	1350231	922	133
0	1352303	923	233
0	1353695	924	125
0	1355055	925	133
0	1356394	926	122
0	1358070	927	167
0	1359389	928	120
0	1360767	929	131
0	1362337	930	142
0	1363765	931	137
0	1365114	932	136
0	1366962	933	177
0	1368369	934	146
0	1369912	935	150
0	1371086	936	109
0	1372541	937	138
0	1373991	938	157
0	1375600	939	160
0	1376926	940	122
0	1378156	941	127
0	1379245	942	104
0	1380727	943	135
0	1382093	944	133
0	1383424	945	116
0	1384778	946	115
0	1386391	947	150
0	1387967	948	143
0	1389367	949	137
0	1391014	950	169
0	1392449	951	146
0	1394057	952	149
0	1395499	953	135
0	1396805	954	127
0	1398645	955	205
0	1399994	956	128
0	1401431	957	136
0	1402994	958	138
0	1404238	959	109
0	1405682	960	148
0	1406847	961	100
0	1408075	962	133
0	1409544	963	164
0	1410881	964	112
0	1412610	965	158
0	1414003	966	138
0	1415811	967	185
0	1417132	968	148
0	1418499	969	146
0	1420129	970	152
0	1421574	971	152
0	1422707	972	114
0	1424099	973	131
0	1425295	974	115
0	1426680	975	140
0	1428328	976	169
0	1429693	977	130
0	1431216	978	140
0	1432778	979	143
0	1434314	980	148
0	1435591	981	114
0	1437112	982	158
0	1438739	983	150
0	1440088	984	132
0	1441423	985	106
0	1442786	986	110
0	1444652	987	173
0	1445894	988	125
0	1447024	989	119
0	1448344	990	132
0	1449573	991	122
0	1451081	992	153
0	1452401	993	127
0	1453811	994	129
0	1455181	995	119
0	1456555	996	129
0	1457964	997	112
0	1459611	998	148
0	1461045	999	129
0	1462502	1000	149
0	1464085	1001	180
0	1465625	1002	141
0	1467223	1003	163
0	1468923	1004	171
0	1470593	1005	153
0	1472356	1006	182
0	1473820	1007	145
0	1475187	1008	128
0	1476668	1009	144
0	1478101	1010	147
0	1479806	1011	166
0	1481353	1012	154
0	1483032	1013	154
0	1484623	1014	146
0	1486132	1015	152
0	1487669	1016	160
0	1489058	1017	148
0	1490563	1018	134
0	1491798	1019	114
0	1493114	1020	124
0	1494769	1021	152
0	1496316	1022	146
0	1497559	1023	106
0	1499081	1024	143
0	1500608	1025	146
0	1502343	1026	176
0	1503741	1027	117
0	1504972	1028	126
0	1506217	1029	112
0	1507290	1030	87
0	1508822	1031	161
0	1510195	1032	132
0	1511509	1033	123
0	1513179	1034	171
0	1514619	1035	143
0	1516195	1036	147
0	1517473	1037	107
0	1518831	1038	139
0	1520296	1039	120
0	1521763	1040	151
0	1523365	1041	145
0	1524823	1042	139
0	1526159	1043	125
0	1527372	1044	104
0	1528676	1045	135
0	1529858	1046	105
0	1530897	1047	78
0	1532438	1048	152
0	1533872	1049	123
0	1535669	1050	177
0	1537246	1051	166
0	1538934	1052	169
0	1540593	1053	160
0	1542365	1054	163
0	1544015	1055	155
0	1545310	1056	116
0	1546847	1057	160
0	1548570	1058	168
0	1550118	1059	165
0	1551411	1060	107
0	1553059	1061	157
0	1554562	1062	148
0	1555888	1063	145
0	1557254	1064	141
0	1558716	1065	145
0	1559948	1066	89
0	1561469	1067	148
0	1562992	1068	134
0	1564578	1069	153
0	1566038	1070	134
0	1567536	1071	139
0	1568838	1072	127
0	1570383	1073	144
0	1571873	1074	153
0	1573505	1075	153
0	1575140	1076	162
0	1576788	1077	149
0	1578138	1078	127
0	1579504	1079	145
0	1580935	1080	123
0	1582100	1081	122
0	1583368	1082	121
0	1584966	1083	155
0	1586526	1084	163
0	1587995	1085	124
0	1589625	1086	149
0	1590757	1087	89
0	1592160	1088	130
0	1593838	1089	141
0	1595431	1090	147
0	1597175	1091	163
0	1598542	1092	134
0	1600350	1093	171
0	1601753	1094	132
0	1603151	1095	143
0	1604698	1096	160
0	1606380	1097	165
0	1607963	1098	168
0	1609587	1099	149
0	1611077	1100	124
0	1612522	1101	144
0	1614338	1102	171
0	1615903	1103	162
0	1617496	1104	146
0	1618947	1105	146
0	1620049	1106	101
0	1621367	1107	129
0	1622885	1108	129
0	1624154	1109	132
0	1625551	1110	139
0	1626982	1111	142
0	1628626	1112	165
0	1629942	1113	123
0	1631311	1114	130
0	1632920	1115	158
0	1634580	1116	159
0	1635807	1117	114
0	1637082	1118	116
0	1638644	1119	163
0	1639961	1120	133
0	1641464	1121	162
0	1642572	1122	101
0	1643993	1123	124
0	1645319	1124	123
0	1646981	1125	149
0	1648519	1126	139
0	1649854	1127	126
0	1651340	1128	141
0	1652851	1129	130
0	1654721	1130	192
0	1656458	1131	144
0	1657890	1132	139
0	1659535	1133	168
0	1660925	1134	131
0	1662158	1135	112
0	1663714	1136	155
0	1665019	1137	118
0	1666490	1138	144
0	1668057	1139	168
0	1669765	1140	156
0	1671193	1141	121
0	1672607	1142	147
0	1674268	1143	178
0	1675742	1144	133
0	1677206	1145	147
0	1678510	1146	131
0	1680010	1147	153
0	1681061	1148	98
0	1682429	1149	129
0	1683649	1150	110
0	1685156	1151	126
0	1686853	1152	160
0	1688217	1153	135
0	1689445	1154	109
0	1691132	1155	154
0	1692571	1156	148
0	1694124	1157	150
0	1695585	1158	142
0	1696826	1159	114
0	1698202	1160	130
0	1699528	1161	109
0	1701253	1162	156
0	1702475	1163	119
0	1703878	1164	154
0	1705398	1165	165
0	1707308	1166	183
0	1708857	1167	156
0	1710196	1168	124
0	1711911	1169	152
0	1713178	1170	113
0	1714611	1171	160
0	1716167	1172	153
0	1717886	1173	154
0	1719353	1174	142
0	1720664	1175	122
0	1722212	1176	133
0	1723483	1177	136
0	1724832	1178	136
0	1726336	1179	157
0	1727790	1180	126
0	1729069	1181	108
0	1730626	1182	132
0	1732216	1183	129
0	1733603	1184	112
0	1734763	1185	101
0	1736555	1186	165
0	1738108	1187	166
0	1739919	1188	166
0	1741435	1189	143
0	1742694	1190	109
0	1744229	1191	162
0	1745714	1192	136
0	1747132	1193	135
0	1748247	1194	98
0	1749635	1195	139
0	1751272	1196	162
0	1752823	1197	150
0	1754411	1198	133
0	1755946	1199	162
0	1757284	1200	124
0	1758744	1201	147
0	1760427	1202	158
0	1762037	1203	143
0	1763338	1204	132
0	1764621	1205	122
0	1766155	1206	151
0	1767692	1207	142
0	1769071	1208	140
0	1770263	1209	113
0	1771704	1210	123
0	1773011	1211	112
0	1774558	1212	156
0	1775782	1213	113
0	1777189	1214	138
0	1778727	1215	147
0	1780067	1216	123
0	1781382	1217	120
0	1782970	1218	163
0	1784190	1219	111
0	1785470	1220	128
0	1787011	1221	152
0	1788283	1222	107
0	1789983	1223	169
0	1791480	1224	136
0	1793260	1225	183
0	1794725	1226	134
0	1796313	1227	139
0	1797734	1228	126
0	1799151	1229	132
0	1800881	1230	176
0	1802586	1231	146
0	1803897	1232	114
0	1805589	1233	175
0	1806928	1234	144
0	1808464	1235	133
0	1809990	1236	145
0	1811438	1237	141
0	1813315	1238	182
0	1815106	1239	184
0	1816625	1240	157
0	1817998	1241	144
0	1819481	1242	150
0	1820935	1243	145
0	1822335	1244	147
0	1823837	1245	161
0	1824978	1246	96
0	1826418	1247	143
0	1827830	1248	135
0	1829079	1249	126
0	1830718	1250	149
0	1832294	1251	149
0	1833612	1252	117
0	1834867	1253	116
0	1836207	1254	137
0	1837628	1255	156
0	1839080	1256	141
0	1840260	1257	105
0	1841675	1258	134
0	1842777	1259	107
0	1844472	1260	167
0	1845865	1261	122
0	1847256	1262	142
0	1848893	1263	156
0	1850309	1264	129
0	1851891	1265	151
0	1853294	1266	114
0	1854724	1267	153
0	1856352	1268	165
0	1857410	1269	105
0	1858974	1270	168
0	1860561	1271	140
0	1861773	1272	113
0	1863288	1273	150
0	1865080	1274	179
0	1866584	1275	129
0	1867958	1276	143
0	1869193	1277	114
0	1870422	1278	112
0	1872110	1279	171
0	1873742	1280	178
0	1875255	1281	138
0	1876632	1282	132
0	1877989	1283	126
0	1879537	1284	147
0	1880793	1285	111
0	1882061	1286	115
0	1883494	1287	138
0	1884974	1288	127
0	1886436	1289	147
0	1887694	1290	112
0	1888869	1291	104
0	1890263	1292	145
0	1892009	1293	135
0	1893309	1294	137
0	1894664	1295	118
0	1895830	1296	111
0	1897120	1297	127
0	1898340	1298	117
0	1899845	1299	136
0	1901229	1300	128
0	1902505	1301	125
0	1903765	1302	117
0	1905294	1303	140
0	1906717	1304	146
0	1908457	1305	165
0	1910077	1306	149
0	1911427	1307	123
0	1913017	1308	151
0	1914268	1309	122
0	1915869	1310	149
0	1917375	1311	117
0	1918861	1312	159
0	1920199	1313	131
0	1921482	1314	114
0	1922914	1315	137
0	1924326	1316	131
0	1925527	1317	118
0	1926664	1318	118
0	1928114	1319	139
0	1929553	1320	137
0	1930909	1321	121
0	1932585	1322	163
0	1934320	1323	162
0	1935856	1324	139
0	1936984	1325	123
0	1938256	1326	121
0	1939610	1327	129
0	1941124	1328	165
0	1942705	1329	180
0	1944285	1330	152
0	1945696	1331	150
0	1947406	1332	177
0	1949015	1333	162
0	1950102	1334	104
0	1951411	1335	102
0	1952662	1336	116
0	1954369	1337	158
0	1955688	1338	132
0	1956971	1339	110
0	1958291	1340	128
0	1959467	1341	103
0	1961097	1342	129
0	1962974	1343	172
0	1964724	1344	177
0	1966401	1345	158
0	1967662	1346	108
0	1968864	1347	117
0	1970400	1348	143
0	1971866	1349	155
0	1973276	1350	130
0	1974960	1351	141
0	1976635	1352	140
0	1977631	1353	91
0	1978979	1354	141
0	1980497	1355	157
0	1981743	1356	125
0	1983124	1357	124
0	1984397	1358	122
0	1985672	1359	120
0	1986824	1360	108
0	1988302	1361	147
0	1989788	1362	143
0	1990921	1363	116
0	1992474	1364	144
0	1993835	1365	144
0	1995471	1366	185
0	1996756	1367	112
0	1998016	1368	101
0	1999719	1369	178
0	2001035	1370	116
0	2002558	1371	132
0	2004358	1372	157
0	2006085	1373	174
0	2007785	1374	171
0	2009233	1375	139
0	2010774	1376	140
0	2012134	1377	127
0	2013799	1378	174
0	2015015	1379	103
0	2016574	1380	137
0	2017659	1381	102
0	2018802	1382	110
0	2020582	1383	175
0	2021941	1384	122
0	2023803	1385	193
0	2025285	1386	145
0	2026552	1387	118
0	2027717	1388	98
0	2029107	1389	143
0	2030569	1390	144
0	2032260	1391	176
0	2033935	1392	160
0	2035487	1393	161
0	2037084	1394	170
0	2038245	1395	104
0	2040102	1396	182
0	2041780	1397	155
0	2043400	1398	149
0	2044544	1399	105
0	2046064	1400	128
0	2047455	1401	142
0	2049045	1402	171
0	2050523	1403	135
0	2052048	1404	146
0	2053953	1405	178
0	2055230	1406	132
0	2056338	1407	91
0	2057958	1408	159
0	2059472	1409	157
0	2060693	1410	117
0	2062428	1411	146
0	2064075	1412	168
0	2065468	1413	138
0	2066733	1414	108
0	2068376	1415	146
0	2069580	1416	117
0	2070972	1417	143
0	2072336	1418	143
0	2073649	1419	116
0	2075084	1420	135
0	2076484	1421	141
0	2078055	1422	168
0	2079132	1423	92
0	2080918	1424	171
0	2082325	1425	136
0	2083936	1426	164
0	2085012	1427	109
0	2086384	1428	125
0	2087871	1429	142
0	2089439	1430	168
0	2090749	1431	115
0	2092181	1432	129
0	2093703	1433	139
0	2095185	1434	133
0	2096546	1435	138
0	2097985	1436	146
0	2099504	1437	146
0	2100688	1438	113
0	2102131	1439	132
0	2103531	1440	142
0	2104834	1441	122
0	2106150	1442	117
0	2107901	1443	188
0	2109355	1444	141
0	2111187	1445	175
0	2112597	1446	129
0	2113590	1447	84
0	2115276	1448	185
0	2116915	1449	174
0	2118432	1450	143
0	2119819	1451	124
0	2121168	1452	132
0	2122480	1453	143
0	2123855	1454	124
0	2125166	1455	102
0	2126132	1456	89
0	2127360	1457	117
0	2129101	1458	174
0	2130623	1459	151
0	2132185	1460	134
0	2133654	1461	120
0	2135057	1462	138
0	2136746	1463	160
0	2138044	1464	139
0	2139765	1465	158
0	2141286	1466	150
0	2142688	1467	131
0	2144246	1468	153
0	2145558	1469	133
0	2147454	1470	186
0	2148931	1471	148
0	2150343	1472	143
0	2151735	1473	127
0	2153303	1474	151
0	2154581	1475	121
0	2155780	1476	110
0	2157358	1477	175
0	2158796	1478	133
0	2160656	1479	197
0	2162086	1480	128
0	2163706	1481	173
0	2165541	1482	178
0	2167208	1483	170
0	2168884	1484	177
0	2170594	1485	167
0	2172398	1486	169
0	2173703	1487	104
0	2175046	1488	118
0	2176651	1489	158
0	2178100	1490	139
0	2179629	1491	130
0	2181178	1492	156
0	2182473	1493	122
0	2184133	1494	165
0	2185495	1495	133
0	2186796	1496	126
0	2188431	1497	166
0	2189646	1498	122
0	2191100	1499	153
0	2192720	1500	148
0	2194323	1501	148
0	2195461	1502	103
0	2196888	1503	130
0	2198364	1504	145
0	2199924	1505	165
0	2201307	1506	130
0	2202725	1507	127
0	2203861	1508	89
0	2205431	1509	175
0	2206887	1510	128
0	2208217	1511	123
0	2209452	1512	124
0	2210958	1513	153
0	2212185	1514	116
0	2213662	1515	134
0	2214689	1516	90
0	2215845	1517	109
0	2217107	1518	105
0	2218600	1519	154
0	2220327	1520	165
0	2221737	1521	143
0	2223429	1522	167
0	2224802	1523	130
0	2226452	1524	175
0	2227671	1525	116
0	2229147	1526	143
0	2230324	1527	112
0	2231817	1528	132
0	2233330	1529	148
0	2234773	1530	145
0	2236111	1531	123
0	2237885	1532	187
0	2239340	1533	146
0	2240788	1534	145
0	2241962	1535	115
0	2243387	1536	156
0	2244774	1537	138
0	2246320	1538	143
0	2247522	1539	109
0	2248983	1540	141
0	2250457	1541	135
0	2251924	1542	116
0	2253422	1543	139
0	2254804	1544	143
0	2256221	1545	140
0	2257614	1546	126
0	2258932	1547	127
0	2260363	1548	112
0	2261742	1549	132
0	2263053	1550	121
0	2264514	1551	148
0	2265989	1552	126
0	2267339	1553	149
0	2268363	1554	87
0	2269835	1555	123
0	2271479	1556	143
0	2272548	1557	96
0	2274017	1558	164
0	2275267	1559	139
0	2276529	1560	134
0	2277987	1561	141
0	2279455	1562	149
0	2280986	1563	152
0	2282488	1564	151
0	2284159	1565	154
0	2285725	1566	151
0	2287087	1567	127
0	2288482	1568	134
0	2290015	1569	148
0	2291191	1570	92
0	2292914	1571	154
0	2294603	1572	176
0	2295940	1573	132
0	2297240	1574	109
0	2298577	1575	142
0	2299786	1576	118
0	2301212	1577	149
0	2302704	1578	151
0	2304077	1579	140
0	2305362	1580	119
0	2306666	1581	115
0	2307724	1582	107
0	2309125	1583	130
0	2310719	1584	163
0	2312091	1585	139
0	2313641	1586	157
0	2315016	1587	122
0	2316568	1588	137
0	2318151	1589	150
0	2319681	1590	166
0	2320699	1591	89
0	2322285	1592	179
0	2323717	1593	127
0	2325196	1594	130
0	2326781	1595	140
0	2328216	1596	114
0	2329717	1597	138
0	2331320	1598	156
0	2332862	1599	157
0	2334228	1600	116
0	2335625	1601	132
0	2336948	1602	128
0	2338624	1603	165
0	2340202	1604	161
0	2341202	1605	97
0	2342576	1606	115
0	2344063	1607	152
0	2345146	1608	88
0	2346542	1609	129
0	2347832	1610	114
0	2349806	1611	207
0	2351055	1612	112
0	2352514	1613	138
0	2354114	1614	173