version 3
run SimulationTime-263-20240107-16:18:09-6908
attr configname SimulationTime
attr datetime 20240107-16:18:09
attr datetimef 20240107-161809
attr experiment SimulationTime
attr inifile omnetpp.ini
attr iterationvars ""
attr iterationvarsd ""
attr iterationvarsf ""
attr measurement ""
attr network System
attr processid 6908
attr repetition 263
attr replication #263
attr resultdir results
attr runnumber 263
attr seedset 263
config **.cpu.rate 1000
config **.hd.rateProcessing 250
config **.webServer.web_server_rate 100
config **.p1 0.35
config **.p2 0.40
config network System
config num-rngs 4
config **.cpu.rng-0 0
config **.cpu.rng-1 1
config **.hd.rng-0 2
config **.webServer.rng-0 3
config repeat 500
config seed-set 263
config sim-time-limit 10000s
config **.client.numClients 40

vector 0 System.server.cpu requestCounterStat:vector ETV
attr recordingmode vector
attr source requestCounter
vector 1 System.server.hd utilizationHdStat:vector ETV
attr recordingmode vector
attr source utilizationHd
vector 2 System.server.cpu utilizationCpuStat:vector ETV
attr recordingmode vector
attr source utilizationCpu
vector 3 System.webServer utilizationWsStat:vector ETV
attr recordingmode vector
attr source utilizationWs
0	1876	1	189
0	3453	2	160
0	5190	3	176
0	6414	4	113
0	8355	5	208
0	9434	6	118
0	10744	7	113
0	12177	8	150
0	13744	9	166
0	15391	10	149
0	16838	11	130
0	18587	12	164
0	20056	13	152
0	21141	14	108
0	22428	15	106
0	23753	16	132
0	25273	17	141
0	26606	18	128
0	28152	19	151
0	29537	20	119
0	31036	21	154
0	32699	22	178
0	34157	23	129
0	35561	24	149
0	37111	25	149
0	38636	26	148
0	39979	27	134
0	41352	28	120
0	42949	29	164
0	44639	30	172
0	46188	31	142
0	47633	32	144
0	49120	33	136
0	50722	34	167
0	52086	35	135
0	53462	36	139
0	55018	37	155
0	56366	38	131
0	57768	39	141
0	59213	40	127
0	60610	41	132
0	61861	42	114
0	63397	43	135
0	65060	44	164
0	66488	45	149
0	67859	46	138
0	69041	47	107
0	70409	48	141
0	71790	49	128
0	73578	50	194
0	75060	51	149
0	76662	52	161
0	77996	53	129
0	79473	54	152
0	80909	55	139
0	82737	56	181
0	84192	57	128
0	85888	58	165
0	87525	59	156
0	88952	60	133
0	90282	61	135
0	91585	62	118
0	92734	63	100
0	93998	64	111
0	95533	65	156
0	96968	66	130
0	98394	67	119
0	99964	68	159
0	101367	69	142
0	102953	70	142
0	104347	71	143
0	105673	72	127
0	107070	73	140
0	108754	74	159
0	110270	75	143
0	111480	76	103
0	112877	77	140
0	114609	78	173
0	116084	79	146
0	117452	80	116
0	118746	81	143
0	120295	82	148
0	121834	83	150
0	123476	84	171
0	124934	85	149
0	126409	86	132
0	127646	87	106
0	129291	88	150
0	130742	89	146
0	131992	90	114
0	132971	91	82
0	134022	92	94
0	135542	93	153
0	136906	94	111
0	138458	95	167
0	140161	96	182
0	141878	97	156
0	143399	98	152
0	144866	99	140
0	146655	100	159
0	147913	101	117
0	149201	102	117
0	150760	103	154
0	152318	104	163
0	154085	105	178
0	155532	106	130
0	157013	107	154
0	158435	108	145
0	160081	109	163
0	161458	110	139
0	162775	111	124
0	164175	112	113
0	165322	113	96
0	167047	114	166
0	168642	115	158
0	170012	116	135
0	171757	117	176
0	173383	118	155
0	174764	119	120
0	176392	120	164
0	177805	121	116
0	179440	122	138
0	181021	123	166
0	182519	124	139
0	184205	125	155
0	185886	126	172
0	187005	127	104
0	188817	128	173
0	189825	129	89
0	191552	130	161
0	192824	131	121
0	194118	132	129
0	195552	133	147
0	197052	134	149
0	198513	135	124
0	199947	136	125
0	201591	137	161
0	202843	138	123
0	204255	139	141
0	205641	140	116
0	206937	141	121
0	208396	142	138
0	210193	143	166
0	211815	144	165
0	213205	145	139
0	214510	146	136
0	216111	147	164
0	217718	148	144
0	219173	149	132
0	220671	150	138
0	222115	151	149
0	223864	152	176
0	225267	153	122
0	226722	154	138
0	227956	155	123
0	229381	156	144
0	231065	157	149
0	232516	158	126
0	233791	159	132
0	235517	160	164
0	236721	161	109
0	238649	162	217
0	240122	163	132
0	241757	164	156
0	243183	165	141
0	244986	166	190
0	246417	167	126
0	247721	168	129
0	248758	169	92
0	250251	170	167
0	251813	171	159
0	253221	172	129
0	254756	173	166
0	256392	174	145
0	257802	175	139
0	259099	176	108
0	260723	177	135
0	262662	178	188
0	264141	179	140
0	265569	180	122
0	266980	181	140
0	268356	182	135
0	270211	183	172
0	271525	184	123
0	272814	185	134
0	274287	186	130
0	275817	187	165
0	277091	188	123
0	278287	189	117
0	279843	190	160
0	281531	191	165
0	283166	192	150
0	284527	193	120
0	286180	194	152
0	287900	195	177
0	289388	196	149
0	291016	197	157
0	292300	198	117
0	293400	199	97
0	294880	200	138
0	296188	201	123
0	297497	202	108
0	298967	203	155
0	300494	204	152
0	302169	205	152
0	303716	206	142
0	304774	207	103
0	306024	208	121
0	307364	209	127
0	308703	210	141
0	310000	211	124
0	311177	212	116
0	312434	213	122
0	313829	214	124
0	314944	215	102
0	316538	216	167
0	318026	217	157
0	319655	218	170
0	321072	219	114
0	322684	220	136
0	323958	221	113
0	325650	222	163
0	326968	223	111
0	328514	224	139
0	330165	225	160
0	331299	226	121
0	332638	227	136
0	334310	228	169
0	336019	229	156
0	337669	230	168
0	339166	231	152
0	340529	232	140
0	342066	233	150
0	343661	234	158
0	345413	235	169
0	346749	236	125
0	348416	237	154
0	349994	238	153
0	351581	239	150
0	353091	240	144
0	354237	241	109
0	355779	242	153
0	357076	243	156
0	358589	244	160
0	360387	245	167
0	361786	246	128
0	363221	247	146
0	364893	248	171
0	366566	249	160
0	367821	250	119
0	369188	251	144
0	370712	252	165
0	372161	253	126
0	373646	254	154
0	375292	255	169
0	377008	256	163
0	378695	257	172
0	380332	258	160
0	382005	259	144
0	383774	260	183
0	385494	261	169
0	387291	262	176
0	388941	263	161
0	390498	264	148
0	391885	265	150
0	393296	266	146
0	394780	267	143
0	396284	268	129
0	397558	269	125
0	398892	270	142
0	400568	271	175
0	402006	272	129
0	403306	273	109
0	404593	274	134
0	406127	275	165
0	407457	276	117
0	409132	277	162
0	410414	278	137
0	411837	279	142
0	413119	280	116
0	414491	281	137
0	416090	282	158
0	417685	283	158
0	419176	284	150
0	420483	285	114
0	421886	286	130
0	423621	287	170
0	424814	288	112
0	426207	289	126
0	427829	290	172
0	429229	291	137
0	430824	292	142
0	432289	293	148
0	433778	294	148
0	435064	295	123
0	436513	296	142
0	437923	297	115
0	439286	298	140
0	440834	299	177
0	442418	300	168
0	444180	301	179
0	445399	302	118
0	446841	303	129
0	448552	304	148
0	449982	305	137
0	451400	306	161
0	452581	307	114
0	454005	308	129
0	455416	309	128
0	456984	310	144
0	458391	311	138
0	459743	312	121
0	460901	313	93
0	462495	314	153
0	464076	315	148
0	465250	316	123
0	466477	317	98
0	467781	318	137
0	469266	319	148
0	471168	320	186
0	472745	321	166
0	474217	322	157
0	475529	323	107
0	477036	324	138
0	478304	325	129
0	479875	326	170
0	481606	327	178
0	482870	328	117
0	484318	329	125
0	485738	330	140
0	487528	331	159
0	489032	332	125
0	490210	333	115
0	491248	334	93
0	492553	335	126
0	493751	336	119
0	495205	337	137
0	496583	338	129
0	497875	339	113
0	499162	340	129
0	500756	341	157
0	502489	342	168
0	503905	343	141
0	505491	344	131
0	507064	345	146
0	508471	346	126
0	509932	347	126
0	511647	348	150
0	513212	349	150
0	514683	350	137
0	516112	351	124
0	517659	352	146
0	518965	353	99
0	520462	354	154
0	521745	355	120
0	523259	356	163
0	524718	357	130
0	526056	358	135
0	527711	359	150
0	529200	360	119
0	530915	361	198
0	532418	362	142
0	533999	363	156
0	535292	364	132
0	536915	365	170
0	538643	366	157
0	539912	367	114
0	541362	368	137
0	542892	369	161
0	544410	370	148
0	546086	371	165
0	547473	372	128
0	549045	373	141
0	550581	374	123
0	551998	375	126
0	553498	376	125
0	554791	377	134
0	556287	378	165
0	557309	379	103
0	558732	380	129
0	559851	381	104
0	561206	382	120
0	562409	383	130
0	563961	384	145
0	565629	385	175
0	567151	386	161
0	568515	387	123
0	569888	388	134
0	571105	389	100
0	572260	390	103
0	573884	391	143
0	575554	392	187
0	576870	393	125
0	578030	394	113
0	579667	395	156
0	581102	396	152
0	582533	397	140
0	583834	398	116
0	585489	399	160
0	586895	400	120
0	588199	401	125
0	589732	402	158
0	591045	403	112
0	592570	404	152
0	594248	405	189
0	595496	406	117
0	597142	407	155
0	598623	408	120
0	599914	409	124
0	601152	410	116
0	602481	411	120
0	603977	412	153
0	605402	413	126
0	606768	414	117
0	608345	415	164
0	609510	416	104
0	610922	417	139
0	612463	418	154
0	613737	419	123
0	615363	420	168
0	616790	421	140
0	618282	422	121
0	619435	423	92
0	620958	424	142
0	622587	425	164
0	624277	426	163
0	625993	427	169
0	627136	428	106
0	628476	429	145
0	629681	430	115
0	631187	431	135
0	632537	432	125
0	633800	433	128
0	635383	434	142
0	636446	435	90
0	637835	436	120
0	639688	437	186
0	641696	438	193
0	643367	439	160
0	645070	440	157
0	646343	441	128
0	647930	442	138
0	649469	443	138
0	650787	444	139
0	652261	445	125
0	653739	446	147
0	655108	447	138
0	656445	448	116
0	658166	449	168
0	659605	450	131
0	661008	451	120
0	662544	452	141
0	664011	453	152
0	665465	454	139
0	666623	455	113
0	668101	456	147
0	669666	457	152
0	670765	458	102
0	671826	459	100
0	673286	460	144
0	674756	461	137
0	676512	462	171
0	678164	463	163
0	679647	464	142
0	680883	465	103
0	682712	466	192
0	684216	467	151
0	685465	468	120
0	686835	469	121
0	688122	470	105
0	689263	471	120
0	690851	472	165
0	692178	473	122
0	693668	474	147
0	694828	475	113
0	696341	476	144
0	697714	477	124
0	699167	478	124
0	700696	479	144
0	702091	480	139
0	703521	481	139
0	704763	482	111
0	706036	483	118
0	707444	484	153
0	709117	485	156
0	710872	486	172
0	712443	487	164
0	714330	488	168
0	716109	489	188
0	717371	490	110
0	719081	491	157
0	720708	492	158
0	721977	493	126
0	723303	494	135
0	724859	495	151
0	726719	496	191
0	727632	497	80
0	728983	498	132
0	730424	499	136
0	731984	500	156
0	733524	501	159
0	734915	502	126
0	736392	503	146
0	737863	504	128
0	739441	505	147
0	740821	506	129
0	742226	507	138
0	743640	508	133
0	744861	509	116
0	746008	510	97
0	747278	511	115
0	748731	512	160
0	750044	513	116
0	751503	514	134
0	752937	515	125
0	754500	516	140
0	756065	517	138
0	757554	518	142
0	759044	519	151
0	760502	520	136
0	761811	521	120
0	763103	522	119
0	764519	523	141
0	765550	524	102
0	767136	525	143
0	768654	526	139
0	769886	527	137
0	771248	528	123
0	772541	529	112
0	773796	530	109
0	774837	531	100
0	776244	532	146
0	777640	533	133
0	779066	534	137
0	780605	535	156
0	782089	536	125
0	783567	537	139
0	785258	538	150
0	786929	539	166
0	788479	540	138
0	789953	541	143
0	791419	542	135
0	792986	543	158
0	794490	544	149
0	795872	545	135
0	797550	546	179
0	798878	547	121
0	800054	548	113
0	801611	549	152
0	803074	550	129
0	804681	551	162
0	806100	552	124
0	807566	553	143
0	808953	554	126
0	810641	555	159
0	812080	556	132
0	813537	557	140
0	814872	558	136
0	816105	559	124
0	817638	560	157
0	819041	561	116
0	820355	562	139
0	821656	563	112
0	822722	564	109
0	824197	565	140
0	825704	566	152
0	826910	567	121
0	828156	568	117
0	829524	569	143
0	830744	570	112
0	832253	571	140
0	833761	572	137
0	835115	573	121
0	836649	574	141
0	838051	575	119
0	839492	576	122
0	840711	577	108
0	842296	578	144
0	843599	579	126
0	844841	580	114
0	846192	581	130
0	847565	582	136
0	848951	583	135
0	850159	584	109
0	851498	585	126
0	852800	586	131
0	854502	587	173
0	856139	588	156
0	857584	589	130
0	859241	590	151
0	860869	591	161
0	862500	592	170
0	864025	593	136
0	865622	594	168
0	866922	595	125
0	868478	596	129
0	870032	597	147
0	871434	598	139
0	872664	599	109
0	873965	600	121
0	875415	601	131
0	876835	602	131
0	878268	603	110
0	879688	604	145
0	880799	605	96
0	882275	606	129
0	883762	607	156
0	885127	608	124
0	886419	609	115
0	887783	610	134
0	889167	611	125
0	890814	612	170
0	892504	613	153
0	893983	614	144
0	895343	615	129
0	896641	616	139
0	897838	617	110
0	899303	618	138
0	900870	619	154
0	902118	620	116
0	903559	621	120
0	904917	622	123
0	905785	623	81
0	907106	624	124
0	908901	625	198
0	910200	626	112
0	911481	627	102
0	913119	628	159
0	914721	629	169
0	916400	630	183
0	917601	631	122
0	918561	632	73
0	920108	633	138
0	922005	634	202
0	923586	635	158
0	924843	636	118
0	926383	637	161
0	927761	638	131
0	929101	639	107
0	930359	640	112
0	931710	641	146
0	932995	642	144
0	934541	643	145
0	935992	644	140
0	937216	645	117
0	938976	646	163
0	940517	647	178
0	941716	648	98
0	943010	649	99
0	944838	650	170
0	946241	651	138
0	947411	652	111
0	948891	653	145
0	950262	654	144
0	951731	655	128
0	953432	656	160
0	955203	657	174
0	956595	658	137
0	958031	659	141
0	959547	660	148
0	961129	661	155
0	962607	662	135
0	964352	663	164
0	966115	664	166
0	967824	665	158
0	969480	666	173
0	970588	667	127
0	971941	668	128
0	972890	669	88
0	974533	670	163
0	975610	671	106
0	977003	672	136
0	978406	673	118
0	979829	674	132
0	981573	675	167
0	982996	676	122
0	984301	677	120
0	985655	678	111
0	987363	679	151
0	988664	680	111
0	990251	681	152
0	991641	682	123
0	993208	683	136
0	994481	684	118
0	995723	685	115
0	997219	686	139
0	998428	687	114
0	999962	688	139
0	1001109	689	98
0	1002776	690	165
0	1003792	691	89
0	1004902	692	103
0	1006523	693	156
0	1007837	694	107
0	1009567	695	159
0	1011039	696	149
0	1012511	697	137
0	1014244	698	168
0	1015516	699	133
0	1017093	700	143
0	1018484	701	138
0	1019822	702	123
0	1021391	703	152
0	1022767	704	127
0	1024373	705	145
0	1025817	706	129
0	1027304	707	154
0	1029405	708	214
0	1031097	709	151
0	1032464	710	141
0	1033743	711	110
0	1035007	712	131
0	1036883	713	169
0	1038303	714	131
0	1039642	715	120
0	1041172	716	131
0	1042666	717	165
0	1044325	718	140
0	1046103	719	175
0	1047372	720	103
0	1048987	721	154
0	1050729	722	157
0	1052163	723	149
0	1053585	724	149
0	1054990	725	126
0	1056368	726	131
0	1057899	727	154
0	1059466	728	146
0	1060978	729	131
0	1062273	730	121
0	1063351	731	115
0	1064775	732	133
0	1066311	733	149
0	1067465	734	101
0	1069057	735	145
0	1070697	736	163
0	1072305	737	153
0	1073660	738	122
0	1075038	739	147
0	1076866	740	180
0	1078598	741	183
0	1080253	742	166
0	1081653	743	143
0	1082976	744	126
0	1084316	745	133
0	1085826	746	139
0	1087163	747	118
0	1088668	748	146
0	1090018	749	139
0	1091320	750	122
0	1092838	751	135
0	1094084	752	125
0	1095605	753	150
0	1097178	754	140
0	1098721	755	128
0	1100147	756	129
0	1101688	757	140
0	1102891	758	118
0	1104196	759	112
0	1105928	760	160
0	1107372	761	131
0	1108666	762	111
0	1110309	763	164
0	1111504	764	118
0	1113125	765	156
0	1114453	766	137
0	1115795	767	139
0	1117415	768	153
0	1118544	769	98
0	1119614	770	104
0	1120799	771	112
0	1122034	772	106
0	1123256	773	105
0	1124471	774	116
0	1126172	775	156
0	1127625	776	140
0	1128886	777	116
0	1129942	778	109
0	1131079	779	100
0	1132396	780	123
0	1133941	781	160
0	1135557	782	141
0	1137028	783	130
0	1138374	784	133
0	1139623	785	118
0	1140859	786	121
0	1142286	787	138
0	1143927	788	158
0	1145314	789	140
0	1146822	790	156
0	1148456	791	139
0	1149961	792	128
0	1151465	793	151
0	1152547	794	97
0	1154171	795	143
0	1155450	796	122
0	1156910	797	141
0	1158499	798	154
0	1160490	799	210
0	1162255	800	167
0	1163783	801	137
0	1165320	802	156
0	1167054	803	165
0	1168457	804	130
0	1169761	805	115
0	1171303	806	155
0	1172788	807	144
0	1174314	808	139
0	1175768	809	171
0	1177293	810	147
0	1179099	811	175
0	1180366	812	122
0	1181779	813	166
0	1183427	814	191
0	1185052	815	168
0	1186696	816	153
0	1188172	817	123
0	1189822	818	151
0	1191325	819	146
0	1192742	820	135
0	1193962	821	103
0	1195114	822	109
0	1196582	823	147
0	1198026	824	153
0	1199597	825	146
0	1201165	826	163
0	1202636	827	134
0	1204483	828	202
0	1205834	829	128
0	1207351	830	157
0	1208788	831	122
0	1210120	832	119
0	1211503	833	138
0	1213140	834	172
0	1215090	835	179
0	1217099	836	180
0	1218532	837	140
0	1219629	838	102
0	1220751	839	107
0	1222249	840	126
0	1223793	841	147
0	1225042	842	124
0	1226416	843	121
0	1227749	844	134
0	1229196	845	134
0	1230365	846	112
0	1231957	847	137
0	1233572	848	160
0	1235081	849	130
0	1236596	850	145
0	1237974	851	143
0	1238946	852	85
0	1240412	853	121
0	1241998	854	159
0	1243543	855	174
0	1245000	856	144
0	1246427	857	142
0	1247618	858	96
0	1248873	859	124
0	1250402	860	167
0	1251811	861	120
0	1253196	862	120
0	1254901	863	184
0	1256462	864	152
0	1258121	865	166
0	1259885	866	181
0	1261265	867	137
0	1262749	868	139
0	1264157	869	143
0	1265853	870	164
0	1267376	871	142
0	1268794	872	123
0	1270333	873	134
0	1271885	874	145
0	1273518	875	168
0	1274961	876	146
0	1276484	877	156
0	1277902	878	119
0	1279230	879	127
0	1280652	880	134
0	1282197	881	140
0	1283309	882	109
0	1284702	883	148
0	1286209	884	152
0	1287752	885	148
0	1289278	886	151
0	1290665	887	140
0	1292016	888	112
0	1293428	889	129
0	1294801	890	117
0	1296053	891	119
0	1297685	892	145
0	1298891	893	111
0	1300125	894	103
0	1301632	895	158
0	1303266	896	153
0	1305006	897	165
0	1306333	898	104
0	1307728	899	134
0	1309231	900	133
0	1310595	901	125
0	1312040	902	138
0	1313650	903	167
0	1315124	904	133
0	1316708	905	133
0	1318030	906	127
0	1319386	907	125
0	1320838	908	147
0	1322249	909	140
0	1323755	910	134
0	1325094	911	126
0	1326413	912	134
0	1328059	913	145
0	1329578	914	164
0	1330927	915	126
0	1332297	916	141
0	1333630	917	124
0	1335045	918	140
0	1336424	919	134
0	1337777	920	109
0	1339244	921	138
0	1340617	922	138
0	1342416	923	180
0	1344079	924	174
0	1344998	925	70
0	1346566	926	161
0	1347833	927	106
0	1349285	928	127
0	1350354	929	108
0	1351689	930	143
0	1352934	931	124
0	1354488	932	147
0	1355761	933	118
0	1357115	934	127
0	1358653	935	153
0	1360210	936	148
0	1362115	937	204
0	1363393	938	119
0	1364766	939	140
0	1366190	940	122
0	1367431	941	110
0	1368893	942	123
0	1370287	943	129
0	1371836	944	154
0	1373265	945	148
0	1374802	946	146
0	1376144	947	133
0	1378041	948	176
0	1379461	949	121
0	1380991	950	148
0	1382375	951	129
0	1384036	952	178
0	1385389	953	132
0	1386613	954	129
0	1388129	955	119
0	1389266	956	110
0	1390854	957	163
0	1392333	958	156
0	1393980	959	174
0	1395430	960	150
0	1397076	961	185
0	1398687	962	148
0	1400135	963	129
0	1401542	964	134
0	1403192	965	163
0	1404494	966	119
0	1405787	967	120
0	1407182	968	134
0	1408816	969	163
0	1410635	970	157
0	1412208	971	160
0	1413652	972	145
0	1415424	973	183
0	1416967	974	154
0	1418438	975	152
0	1419885	976	146
0	1421443	977	137
0	1422843	978	131
0	1424319	979	155
0	1425714	980	135
0	1427098	981	133
0	1428563	982	124
0	1429946	983	138
0	1431749	984	166
0	1433391	985	167
0	1434775	986	149
0	1436146	987	126
0	1437752	988	151
0	1438666	989	89
0	1439922	990	118
0	1441186	991	117
0	1442368	992	107
0	1443703	993	154
0	1445135	994	137
0	1446632	995	148
0	1447966	996	121
0	1449294	997	131
0	1450934	998	175
0	1452269	999	126
0	1453448	1000	115
0	1455333	1001	196
0	1456644	1002	118
0	1458453	1003	172
0	1460018	1004	142
0	1461368	1005	149
0	1463116	1006	165
0	1464884	1007	165
0	1466395	1008	142
0	1467413	1009	87
0	1469054	1010	147
0	1470785	1011	168
0	1472283	1012	153
0	1473539	1013	131
0	1474803	1014	131
0	1476065	1015	127
0	1477634	1016	156
0	1479141	1017	132
0	1480715	1018	169
0	1481966	1019	112
0	1483100	1020	116
0	1484260	1021	113
0	1485919	1022	162
0	1487366	1023	150
0	1488918	1024	141
0	1490248	1025	143
0	1491865	1026	140
0	1493610	1027	170
0	1495028	1028	117
0	1496781	1029	176
0	1497972	1030	105
0	1499370	1031	125
0	1500797	1032	148
0	1502324	1033	142
0	1503520	1034	105
0	1504859	1035	114
0	1506147	1036	123
0	1508036	1037	196
0	1509727	1038	170
0	1511139	1039	123
0	1512801	1040	178
0	1514709	1041	193
0	1516360	1042	160
0	1517724	1043	115
0	1519025	1044	114
0	1520460	1045	134
0	1522331	1046	180
0	1523992	1047	176
0	1525241	1048	112
0	1526789	1049	143
0	1528437	1050	154
0	1530109	1051	161
0	1531625	1052	149
0	1533037	1053	125
0	1534525	1054	137
0	1535909	1055	129
0	1537001	1056	105
0	1538608	1057	162
0	1540087	1058	146
0	1541488	1059	132
0	1542672	1060	100
0	1544202	1061	143
0	1545674	1062	131
0	1547190	1063	139
0	1548822	1064	157
0	1550353	1065	152
0	1551790	1066	124
0	1553609	1067	188
0	1554886	1068	112
0	1556472	1069	165
0	1557948	1070	138
0	1559700	1071	165
0	1561330	1072	153
0	1562763	1073	112
0	1564466	1074	192
0	1566075	1075	164
0	1567739	1076	173
0	1569157	1077	139
0	1570693	1078	133
0	1572076	1079	128
0	1573764	1080	184
0	1575285	1081	142
0	1576955	1082	141
0	1578587	1083	141
0	1579951	1084	119
0	1581504	1085	160
0	1583469	1086	210
0	1585400	1087	172
0	1586690	1088	131
0	1587990	1089	115
0	1589856	1090	192
0	1591449	1091	152
0	1592861	1092	125
0	1594254	1093	134
0	1595650	1094	143
0	1597101	1095	134
0	1598392	1096	120
0	1599621	1097	132
0	1601277	1098	163
0	1602656	1099	130
0	1604051	1100	115
0	1605266	1101	120
0	1606616	1102	119
0	1607934	1103	129
0	1609371	1104	134
0	1610883	1105	155
0	1612592	1106	180
0	1613960	1107	143
0	1615332	1108	121
0	1616847	1109	142
0	1618214	1110	125
0	1619757	1111	152
0	1621316	1112	152
0	1622728	1113	141
0	1624221	1114	144
0	1625877	1115	165
0	1627636	1116	182
0	1629127	1117	128
0	1630947	1118	165
0	1632543	1119	173
0	1634069	1120	158
0	1635834	1121	190
0	1637414	1122	145
0	1639129	1123	158
0	1640541	1124	125
0	1641910	1125	140
0	1643236	1126	107
0	1644704	1127	131
0	1646213	1128	142
0	1647853	1129	157
0	1649225	1130	134
0	1650864	1131	168
0	1652046	1132	135
0	1653368	1133	131
0	1654558	1134	93
0	1656150	1135	161
0	1657411	1136	114
0	1658631	1137	123
0	1659919	1138	135
0	1661691	1139	173
0	1663289	1140	150
0	1664651	1141	133
0	1665790	1142	124
0	1667254	1143	133
0	1668598	1144	123
0	1670062	1145	129
0	1671805	1146	188
0	1673080	1147	122
0	1674549	1148	132
0	1676148	1149	142
0	1677408	1150	98
0	1678820	1151	131
0	1679948	1152	105
0	1681558	1153	165
0	1683389	1154	162
0	1685083	1155	149
0	1686532	1156	140
0	1688134	1157	143
0	1689559	1158	122
0	1691041	1159	153
0	1692324	1160	115
0	1693705	1161	126
0	1695431	1162	177
0	1696994	1163	148
0	1698623	1164	156
0	1700172	1165	142
0	1701554	1166	129
0	1702753	1167	124
0	1704273	1168	151
0	1705678	1169	120
0	1707052	1170	140
0	1708458	1171	133
0	1709775	1172	132
0	1711214	1173	138
0	1713170	1174	185
0	1714676	1175	147
0	1716157	1176	140
0	1717778	1177	140
0	1719206	1178	157
0	1720791	1179	152
0	1721858	1180	103
0	1723253	1181	124
0	1724908	1182	162
0	1726364	1183	145
0	1727590	1184	125
0	1728980	1185	121
0	1730282	1186	111
0	1731716	1187	139
0	1732961	1188	112
0	1734177	1189	95
0	1735520	1190	135
0	1736795	1191	116
0	1738178	1192	146
0	1739641	1193	130
0	1740858	1194	122
0	1742470	1195	143
0	1744017	1196	144
0	1745519	1197	157
0	1746880	1198	126
0	1748322	1199	157
0	1749720	1200	132
0	1751340	1201	173
0	1752785	1202	138
0	1754230	1203	152
0	1755632	1204	135
0	1756967	1205	116
0	1758258	1206	112
0	1759734	1207	147
0	1761296	1208	163
0	1762752	1209	135
0	1764215	1210	123
0	1765980	1211	176
0	1767788	1212	177
0	1769155	1213	118
0	1770558	1214	134
0	1772371	1215	200
0	1773880	1216	144
0	1775449	1217	136
0	1776610	1218	100
0	1778093	1219	138
0	1779505	1220	140
0	1780670	1221	106
0	1781866	1222	99
0	1783289	1223	138
0	1784648	1224	114
0	1786018	1225	139
0	1787632	1226	151
0	1788946	1227	129
0	1790521	1228	170
0	1791791	1229	137
0	1793376	1230	155
0	1794773	1231	122
0	1796214	1232	126
0	1797481	1233	114
0	1798921	1234	137
0	1800451	1235	137
0	1801839	1236	111
0	1803136	1237	126
0	1804939	1238	180
0	1806350	1239	116
0	1807579	1240	103
0	1808887	1241	117
0	1810203	1242	135
0	1811745	1243	147
0	1813140	1244	134
0	1814633	1245	130
0	1815855	1246	113
0	1817300	1247	126
0	1818802	1248	153
0	1820501	1249	170
0	1821822	1250	125
0	1823130	1251	133
0	1824450	1252	135
0	1825927	1253	146
0	1827670	1254	188
0	1829062	1255	129
0	1830524	1256	155
0	1831779	1257	110
0	1833236	1258	152
0	1834706	1259	137
0	1836177	1260	145
0	1837806	1261	170
0	1839455	1262	154
0	1841010	1263	146
0	1842299	1264	120
0	1843794	1265	162
0	1845317	1266	136
0	1846599	1267	119
0	1848245	1268	171
0	1849429	1269	105
0	1851032	1270	153
0	1852789	1271	162
0	1853861	1272	97
0	1855254	1273	154
0	1856708	1274	153
0	1858510	1275	193
0	1860004	1276	143
0	1861742	1277	167
0	1863027	1278	132
0	1864416	1279	128
0	1866092	1280	168
0	1867890	1281	187
0	1869497	1282	162
0	1871213	1283	153
0	1872450	1284	124
0	1873773	1285	110
0	1875274	1286	136
0	1876785	1287	150
0	1878102	1288	124
0	1879476	1289	135
0	1881115	1290	157
0	1882446	1291	114
0	1883753	1292	132
0	1885460	1293	164
0	1887193	1294	176
0	1888945	1295	183
0	1890499	1296	145
0	1891944	1297	156
0	1893412	1298	137
0	1895041	1299	156
0	1896748	1300	165
0	1898673	1301	192
0	1899981	1302	107
0	1901384	1303	138
0	1902741	1304	122
0	1904305	1305	153
0	1905824	1306	136
0	1907177	1307	134
0	1908726	1308	152
0	1909964	1309	115
0	1911458	1310	152
0	1912874	1311	117
0	1914109	1312	100
0	1915587	1313	131
0	1917113	1314	155
0	1918897	1315	173
0	1920197	1316	117
0	1921691	1317	165
0	1923180	1318	130
0	1924379	1319	118
0	1925806	1320	149
0	1926991	1321	122
0	1928281	1322	105
0	1929759	1323	135
0	1931183	1324	133
0	1932543	1325	135
0	1933888	1326	114
0	1935639	1327	156
0	1936806	1328	110
0	1937971	1329	108
0	1939526	1330	155
0	1941234	1331	185
0	1942504	1332	115
0	1944177	1333	150
0	1945821	1334	155
0	1947256	1335	154
0	1948933	1336	160
0	1950254	1337	108
0	1951623	1338	140
0	1953090	1339	120
0	1954507	1340	137
0	1955756	1341	136
0	1956998	1342	119
0	1958515	1343	150
0	1959961	1344	129
0	1961439	1345	147
0	1963063	1346	163
0	1964518	1347	132
0	1965846	1348	131
0	1967311	1349	140
0	1968605	1350	118
0	1970267	1351	183
0	1971597	1352	129
0	1973094	1353	160
0	1974827	1354	158
0	1976337	1355	131
0	1977731	1356	117
0	1979148	1357	148
0	1980762	1358	165
0	1982312	1359	169
0	1983671	1360	125
0	1985275	1361	161
0	1986716	1362	144
0	1988333	1363	136
0	1989617	1364	123
0	1991109	1365	139
0	1992508	1366	134
0	1993827	1367	124
0	1995377	1368	157
0	1996574	1369	108
0	1997926	1370	132
0	1999189	1371	110
0	2000797	1372	169
0	2002682	1373	182
0	2004346	1374	167
0	2005916	1375	139
0	2007541	1376	148
0	2008926	1377	134
0	2010516	1378	151
0	2012096	1379	159
0	2013484	1380	128
0	2015121	1381	150
0	2016553	1382	143
0	2017707	1383	95
0	2019603	1384	197
0	2021256	1385	170
0	2022808	1386	163
0	2023994	1387	103
0	2025316	1388	119
0	2026856	1389	133
0	2028510	1390	144
0	2030168	1391	181
0	2031540	1392	145
0	2032813	1393	120
0	2034224	1394	126
0	2035857	1395	136
0	2037342	1396	152
0	2038714	1397	131
0	2039960	1398	113
0	2041703	1399	174
0	2043351	1400	172
0	2044886	1401	154
0	2046073	1402	122
0	2047696	1403	162
0	2049177	1404	140
0	2050802	1405	158
0	2052118	1406	131
0	2053379	1407	104
0	2054876	1408	158
0	2056551	1409	172
0	2058025	1410	150
0	2059749	1411	149
0	2061283	1412	163
0	2062624	1413	128
0	2063826	1414	117
0	2064927	1415	90
0	2066224	1416	112
0	2067184	1417	93
0	2068364	1418	113
0	2069743	1419	134
0	2071326	1420	169
0	2072562	1421	115
0	2073950	1422	135
0	2075247	1423	128
0	2076891	1424	157
0	2078420	1425	148
0	2080028	1426	151
0	2081514	1427	129
0	2082884	1428	127
0	2084409	1429	128
0	2085942	1430	139
0	2087739	1431	168
0	2089293	1432	143
0	2090617	1433	105
0	2092130	1434	148
0	2093933	1435	182
0	2095210	1436	132
0	2096382	1437	113
0	2097895	1438	156
0	2099137	1439	115
0	2100595	1440	142
0	2102061	1441	147
0	2103562	1442	140
0	2105132	1443	155
0	2106548	1444	133
0	2108298	1445	155
0	2109502	1446	119
0	2111027	1447	142
0	2112783	1448	173
0	2113989	1449	117
0	2114999	1450	82
0	2116571	1451	167
0	2117777	1452	107
0	2119284	1453	146
0	2121057	1454	176
0	2122503	1455	139
0	2123928	1456	140
0	2125332	1457	125
0	2126923	1458	158
0	2128480	1459	130
0	2130072	1460	154
0	2131479	1461	154
0	2132641	1462	99
0	2133936	1463	124
0	2135518	1464	155
0	2137035	1465	136
0	2138405	1466	129
0	2139629	1467	119
0	2141228	1468	156
0	2142633	1469	140
0	2143896	1470	121
0	2145409	1471	160
0	2146819	1472	141
0	2148176	1473	120
0	2149440	1474	107
0	2150633	1475	96
0	2151921	1476	133
0	2153512	1477	142
0	2154753	1478	118
0	2156215	1479	141
0	2157611	1480	152
0	2158721	1481	97
0	2160420	1482	192
0	2162076	1483	157
0	2163379	1484	122
0	2165009	1485	139
0	2166756	1486	158
0	2167890	1487	123
0	2169345	1488	154
0	2170641	1489	125
0	2171775	1490	98
0	2173457	1491	151
0	2174944	1492	150
0	2176273	1493	116
0	2177917	1494	169
0	2179087	1495	105
0	2180570	1496	132
0	2181926	1497	145
0	2183484	1498	153
0	2184872	1499	123
0	2186263	1500	153
0	2187744	1501	158
0	2189476	1502	157
0	2190886	1503	149
0	2192498	1504	145
0	2194013	1505	118
0	2195586	1506	146
0	2197010	1507	135
0	2198377	1508	146
0	2199812	1509	148
0	2200987	1510	119
0	2202741	1511	155
0	2204501	1512	153
0	2206148	1513	166
0	2207335	1514	108
0	2208655	1515	151
0	2210091	1516	115
0	2211361	1517	133
0	2212892	1518	132
0	2214633	1519	182
0	2216190	1520	143
0	2217533	1521	130
0	2218984	1522	154
0	2220854	1523	179
0	2222388	1524	151
0	2223734	1525	123
0	2225171	1526	130
0	2226918	1527	172
0	2228776	1528	185
0	2230202	1529	121
0	2231533	1530	143
0	2232968	1531	136
0	2234206	1532	101
0	2235395	1533	118
0	2237011	1534	173
0	2238352	1535	132
0	2239723	1536	142
0	2240999	1537	129
0	2242611	1538	157
0	2244100	1539	130
0	2245391	1540	133
0	2246750	1541	132
0	2248020	1542	119
0	2249391	1543	132
0	2250755	1544	143
0	2252494	1545	188
0	2254116	1546	169
0	2255471	1547	134
0	2256708	1548	108
0	2258161	1549	146
0	2259576	1550	133
0	2260986	1551	133
0	2262290	1552	109
0	2263831	1553	158
0	2265407	1554	153
0	2266956	1555	146
0	2268477	1556	144
0	2269848	1557	142
0	2271566	1558	163
0	2273176	1559	163
0	2274823	1560	153
0	2276189	1561	115
0	2277807	1562	159
0	2279184	1563	142
0	2280332	1564	103
0	2281720	1565	137
0	2283064	1566	133
0	2284398	1567	135
0	2285471	1568	96
0	2287071	1569	169
0	2288209	1570	114
0	2289439	1571	127
0	2290666	1572	98
0	2291879	1573	116
0	2293219	1574	115
0	2294329	1575	99
0	2295723	1576	121
0	2297191	1577	143
0	2298756	1578	168
0	2300039	1579	108
0	2301501	1580	126
0	2303252	1581	180
0	2304625	1582	138
0	2306064	1583	136
0	2307491	1584	128
0	2309176	1585	160
0	2311060	1586	189
0	2312369	1587	136
0	2314056	1588	146
0	2315480	1589	141
0	2317189	1590	171
0	2318584	1591	140
0	2320101	1592	154
0	2321397	1593	121
0	2323194	1594	192
0	2324752	1595	151
0	2326231	1596	138
0	2327801	1597	145
0	2329137	1598	115
0	2330494	1599	122
0	2331890	1600	150
0	2333346	1601	131
0	2334706	1602	121
0	2335927	1603	98
0	2337336	1604	144
0	2338419	1605	92
0	2340088	1606	154
0	2341466	1607	119
0	2342919	1608	144
0	2344294	1609	134
0	2345702	1610	132
0	2347380	1611	177
0	2348533	1612	106
0	2349840	1613	110
0	2351260	1614	137