version 3
run SimulationTime-427-20240108-13:24:28-2616
attr configname SimulationTime
attr datetime 20240108-13:24:28
attr datetimef 20240108-132428
attr experiment SimulationTime
attr inifile omnetpp.ini
attr iterationvars ""
attr iterationvarsd ""
attr iterationvarsf ""
attr measurement ""
attr network System
attr processid 2616
attr repetition 427
attr replication #427
attr resultdir results
attr runnumber 427
attr seedset 427
config **.cpu.rate 1000
config **.hd.rateProcessing 250
config **.webServer.web_server_rate 100
config **.p1 0.35
config **.p2 0.40
config network System
config num-rngs 4
config **.cpu.rng-0 0
config **.cpu.rng-1 1
config **.hd.rng-0 2
config **.webServer.rng-0 3
config repeat 500
config seed-set 427
config sim-time-limit 10000s
config **.client.numClients 40

vector 0 System.server.cpu requestCounterStat:vector ETV
attr recordingmode vector
attr source requestCounter
vector 1 System.server.hd utilizationHdStat:vector ETV
attr recordingmode vector
attr source utilizationHd
vector 2 System.server.cpu utilizationCpuStat:vector ETV
attr recordingmode vector
attr source utilizationCpu
vector 3 System.webServer utilizationWsStat:vector ETV
attr recordingmode vector
attr source utilizationWs
0	1976	1	197
0	3763	2	188
0	5646	3	180
0	7501	4	178
0	9023	5	149
0	10756	6	188
0	12257	7	158
0	13665	8	141
0	15068	9	146
0	17002	10	196
0	18335	11	138
0	20015	12	171
0	21336	13	114
0	23148	14	157
0	24867	15	190
0	26696	16	168
0	28162	17	131
0	29650	18	149
0	31085	19	136
0	32564	20	125
0	34097	21	158
0	35408	22	118
0	36592	23	125
0	37736	24	105
0	39236	25	153
0	40510	26	119
0	42254	27	153
0	43793	28	148
0	45020	29	128
0	46720	30	156
0	47897	31	112
0	49316	32	130
0	50826	33	131
0	52464	34	163
0	54219	35	174
0	55486	36	126
0	56884	37	123
0	58343	38	132
0	59696	39	132
0	61296	40	172
0	62685	41	150
0	64580	42	194
0	65866	43	119
0	66889	44	94
0	68268	45	134
0	69712	46	117
0	71097	47	130
0	72418	48	126
0	73936	49	153
0	75508	50	166
0	77070	51	167
0	78496	52	125
0	79806	53	121
0	81318	54	145
0	82927	55	172
0	84521	56	163
0	85916	57	130
0	87404	58	125
0	89027	59	140
0	90114	60	91
0	91408	61	127
0	92779	62	142
0	94268	63	138
0	95485	64	94
0	96568	65	98
0	97889	66	124
0	99593	67	151
0	101116	68	134
0	102666	69	157
0	104229	70	165
0	105512	71	118
0	107086	72	153
0	108569	73	132
0	110048	74	118
0	111336	75	121
0	112659	76	138
0	114057	77	143
0	115348	78	130
0	116878	79	133
0	118203	80	113
0	119686	81	136
0	121505	82	182
0	123107	83	151
0	124345	84	117
0	125982	85	152
0	127507	86	142
0	129111	87	175
0	130312	88	120
0	131896	89	153
0	133511	90	171
0	135112	91	150
0	136432	92	127
0	138184	93	171
0	139748	94	165
0	141155	95	126
0	142670	96	132
0	144394	97	183
0	145825	98	134
0	147414	99	168
0	148869	100	123
0	150475	101	163
0	152013	102	165
0	153540	103	146
0	154892	104	135
0	156511	105	152
0	157714	106	130
0	159088	107	119
0	160350	108	119
0	161617	109	116
0	162977	110	130
0	164536	111	158
0	165881	112	118
0	167437	113	149
0	169079	114	169
0	170233	115	103
0	171768	116	142
0	172858	117	103
0	173958	118	89
0	175429	119	132
0	177113	120	152
0	178617	121	139
0	179947	122	113
0	181399	123	139
0	182809	124	117
0	183838	125	98
0	185296	126	137
0	186908	127	157
0	188307	128	144
0	189821	129	137
0	191096	130	119
0	192736	131	159
0	194294	132	153
0	195758	133	129
0	196848	134	107
0	198155	135	142
0	199384	136	126
0	200712	137	137
0	201926	138	113
0	203304	139	143
0	204861	140	163
0	206287	141	127
0	207427	142	107
0	209015	143	159
0	210159	144	109
0	211730	145	154
0	213004	146	111
0	214761	147	166
0	216337	148	155
0	217831	149	121
0	219367	150	150
0	220928	151	146
0	222467	152	148
0	224162	153	170
0	225620	154	139
0	226765	155	96
0	227950	156	96
0	229227	157	128
0	230601	158	131
0	232230	159	160
0	233499	160	117
0	235202	161	198
0	236700	162	143
0	238379	163	168
0	239990	164	166
0	241827	165	190
0	243514	166	164
0	245082	167	149
0	246613	168	156
0	248392	169	188
0	249713	170	135
0	251375	171	167
0	253060	172	148
0	254973	173	206
0	256654	174	168
0	257906	175	123
0	259019	176	96
0	260887	177	195
0	262543	178	171
0	263948	179	146
0	265384	180	128
0	266959	181	144
0	268538	182	142
0	270013	183	130
0	271488	184	148
0	272873	185	126
0	274543	186	159
0	275840	187	132
0	277241	188	146
0	278703	189	141
0	280272	190	151
0	281668	191	133
0	283331	192	162
0	284727	193	125
0	286059	194	129
0	287601	195	155
0	289023	196	153
0	290466	197	136
0	292228	198	185
0	294020	199	165
0	295423	200	135
0	297035	201	163
0	298363	202	135
0	300064	203	156
0	301741	204	152
0	303450	205	162
0	304810	206	125
0	306534	207	179
0	307906	208	133
0	309262	209	135
0	310904	210	156
0	312611	211	188
0	314082	212	148
0	315614	213	161
0	317146	214	169
0	318279	215	104
0	319534	216	120
0	320927	217	112
0	322475	218	147
0	324033	219	163
0	325596	220	165
0	327421	221	172
0	328989	222	133
0	330840	223	178
0	332247	224	126
0	333406	225	106
0	334899	226	136
0	336135	227	109
0	337662	228	146
0	339263	229	160
0	340671	230	136
0	342139	231	137
0	343425	232	115
0	344933	233	151
0	346441	234	135
0	348065	235	153
0	349408	236	136
0	350700	237	131
0	352182	238	141
0	353546	239	139
0	354931	240	139
0	356285	241	129
0	357861	242	147
0	359159	243	123
0	360630	244	132
0	362157	245	148
0	363601	246	131
0	364906	247	126
0	366325	248	134
0	367826	249	140
0	369279	250	135
0	370759	251	153
0	372430	252	154
0	373954	253	151
0	375666	254	175
0	377201	255	130
0	378942	256	184
0	380703	257	192
0	382428	258	172
0	384181	259	180
0	385541	260	128
0	387007	261	151
0	388176	262	114
0	389751	263	156
0	391453	264	175
0	392777	265	125
0	394411	266	151
0	395691	267	135
0	397035	268	119
0	398424	269	116
0	399827	270	133
0	401049	271	111
0	402791	272	175
0	404519	273	185
0	405944	274	144
0	407398	275	131
0	409024	276	159
0	410434	277	137
0	411836	278	119
0	413321	279	142
0	414758	280	119
0	415880	281	101
0	417020	282	91
0	418543	283	154
0	420305	284	159
0	422027	285	179
0	423435	286	121
0	424884	287	138
0	426174	288	123
0	427434	289	117
0	429248	290	158
0	430487	291	112
0	431652	292	104
0	433208	293	147
0	434515	294	124
0	435916	295	152
0	437377	296	136
0	438712	297	126
0	440416	298	165
0	441933	299	136
0	443112	300	121
0	444406	301	127
0	446203	302	180
0	447607	303	129
0	449152	304	158
0	450779	305	150
0	452553	306	173
0	453905	307	139
0	455363	308	137
0	456732	309	132
0	458353	310	155
0	459728	311	116
0	461540	312	171
0	463062	313	157
0	464426	314	123
0	466112	315	151
0	467586	316	145
0	469055	317	136
0	470323	318	121
0	472129	319	189
0	473520	320	125
0	475136	321	161
0	476576	322	149
0	477862	323	119
0	479650	324	185
0	481073	325	138
0	482688	326	170
0	484292	327	137
0	485785	328	124
0	487077	329	129
0	488601	330	154
0	489948	331	120
0	491620	332	169
0	492809	333	108
0	494090	334	112
0	495488	335	139
0	496767	336	118
0	498323	337	149
0	499985	338	175
0	501256	339	130
0	502608	340	120
0	503853	341	100
0	505376	342	142
0	506619	343	118
0	508279	344	157
0	509805	345	157
0	511349	346	139
0	512832	347	158
0	514313	348	138
0	515787	349	145
0	517095	350	134
0	518873	351	169
0	520390	352	136
0	521745	353	140
0	522872	354	106
0	524181	355	126
0	525596	356	138
0	526812	357	113
0	528203	358	126
0	529929	359	179
0	531148	360	121
0	532887	361	174
0	534596	362	164
0	535827	363	122
0	537188	364	136
0	538473	365	142
0	539761	366	107
0	541277	367	159
0	542996	368	164
0	544200	369	121
0	545592	370	140
0	546836	371	125
0	548540	372	183
0	550012	373	135
0	551448	374	149
0	553187	375	206
0	554591	376	137
0	555887	377	141
0	557772	378	194
0	559155	379	134
0	560347	380	120
0	561905	381	137
0	563577	382	171
0	565219	383	161
0	566543	384	133
0	568157	385	157
0	570002	386	198
0	571426	387	123
0	572703	388	116
0	574195	389	149
0	575859	390	176
0	577095	391	115
0	578751	392	149
0	579781	393	91
0	581162	394	136
0	582697	395	146
0	584414	396	172
0	585749	397	118
0	587129	398	119
0	588812	399	164
0	590266	400	118
0	591524	401	99
0	592711	402	106
0	594273	403	163
0	595889	404	177
0	597145	405	113
0	598806	406	170
0	600528	407	167
0	602304	408	179
0	603342	409	83
0	605180	410	190
0	606958	411	183
0	608431	412	154
0	609858	413	126
0	611487	414	166
0	612708	415	106
0	614611	416	196
0	615958	417	130
0	617384	418	139
0	618660	419	129
0	620286	420	154
0	621627	421	124
0	623235	422	129
0	624868	423	168
0	626418	424	155
0	627847	425	138
0	629549	426	165
0	631169	427	147
0	632226	428	102
0	633419	429	112
0	635020	430	159
0	636629	431	172
0	637938	432	122
0	639530	433	171
0	641007	434	144
0	642245	435	131
0	643938	436	146
0	645413	437	136
0	646976	438	154
0	648410	439	139
0	649941	440	153
0	651039	441	103
0	652395	442	155
0	653571	443	115
0	655268	444	164
0	656828	445	149
0	658172	446	119
0	659920	447	175
0	661624	448	185
0	663105	449	118
0	664376	450	105
0	665502	451	105
0	667076	452	149
0	668728	453	151
0	669976	454	105
0	671478	455	143
0	672753	456	112
0	674200	457	150
0	675461	458	110
0	676738	459	116
0	678324	460	154
0	679707	461	136
0	680941	462	109
0	682374	463	128
0	683816	464	115
0	685376	465	165
0	686657	466	120
0	687978	467	122
0	689443	468	126
0	690888	469	134
0	692365	470	129
0	693750	471	136
0	694975	472	110
0	696541	473	165
0	697721	474	105
0	699154	475	152
0	700355	476	116
0	702109	477	199
0	703283	478	103
0	704528	479	108
0	705855	480	135
0	707625	481	147
0	709203	482	145
0	710502	483	126
0	711904	484	143
0	713509	485	146
0	714985	486	131
0	716520	487	154
0	717732	488	119
0	719212	489	151
0	720868	490	158
0	722509	491	182
0	723864	492	134
0	724927	493	100
0	726572	494	134
0	728190	495	159
0	729811	496	168
0	731373	497	135
0	733193	498	179
0	734762	499	148
0	736172	500	140
0	737595	501	150
0	739272	502	150
0	740695	503	140
0	742340	504	146
0	743772	505	139
0	745258	506	139
0	746656	507	129
0	747790	508	105
0	749077	509	126
0	750762	510	151
0	752444	511	171
0	753701	512	118
0	755276	513	134
0	757048	514	163
0	758658	515	163
0	759912	516	127
0	761351	517	120
0	762852	518	142
0	764252	519	125
0	765714	520	132
0	767133	521	140
0	768324	522	126
0	769803	523	142
0	771196	524	128
0	772574	525	121
0	774057	526	136
0	775490	527	144
0	776991	528	154
0	778564	529	156
0	779689	530	103
0	781325	531	165
0	782680	532	124
0	784224	533	149
0	785889	534	142
0	787435	535	141
0	789103	536	157
0	790259	537	101
0	791991	538	179
0	793523	539	151
0	794852	540	133
0	796630	541	177
0	798510	542	181
0	800044	543	139
0	802004	544	201
0	803191	545	114
0	804668	546	136
0	806007	547	118
0	807733	548	169
0	808964	549	106
0	810239	550	117
0	811880	551	150
0	813770	552	199
0	815310	553	145
0	817063	554	166
0	818520	555	138
0	820022	556	155
0	821644	557	147
0	823132	558	131
0	824556	559	127
0	826041	560	151
0	827423	561	139
0	828787	562	115
0	830401	563	143
0	832074	564	176
0	833919	565	170
0	835098	566	110
0	836688	567	155
0	837642	568	91
0	838988	569	113
0	840608	570	162
0	842124	571	145
0	843857	572	168
0	845288	573	134
0	846992	574	141
0	848321	575	126
0	849558	576	110
0	850952	577	113
0	852484	578	145
0	853726	579	113
0	855044	580	118
0	856522	581	163
0	857895	582	118
0	859526	583	144
0	861203	584	160
0	862983	585	177
0	864152	586	108
0	865582	587	111
0	867043	588	140
0	868661	589	183
0	870181	590	146
0	871919	591	179
0	873304	592	130
0	874668	593	121
0	876071	594	142
0	877601	595	159
0	878735	596	91
0	880360	597	150
0	881809	598	130
0	883176	599	130
0	884635	600	137
0	886046	601	138
0	887335	602	106
0	888571	603	123
0	890145	604	151
0	891795	605	163
0	893491	606	167
0	895171	607	171
0	896597	608	143
0	897850	609	128
0	899372	610	148
0	900597	611	140
0	901790	612	112
0	903130	613	127
0	904632	614	135
0	905791	615	114
0	907366	616	150
0	909086	617	171
0	910690	618	163
0	912233	619	146
0	913567	620	94
0	914961	621	119
0	916063	622	99
0	917831	623	181
0	919300	624	144
0	920797	625	140
0	922308	626	150
0	923865	627	160
0	925131	628	109
0	926593	629	147
0	928006	630	125
0	929609	631	170
0	931092	632	144
0	932549	633	146
0	934208	634	148
0	935716	635	135
0	937104	636	141
0	938639	637	154
0	939966	638	138
0	941064	639	95
0	942414	640	120
0	943945	641	138
0	945299	642	133
0	946544	643	120
0	947854	644	129
0	949208	645	127
0	950564	646	125
0	952099	647	154
0	953373	648	121
0	954822	649	152
0	956219	650	131
0	957552	651	132
0	959100	652	151
0	960269	653	106
0	961708	654	122
0	962773	655	110
0	964115	656	145
0	965544	657	128
0	967112	658	149
0	968190	659	99
0	969602	660	132
0	971088	661	121
0	972587	662	144
0	974075	663	137
0	975592	664	148
0	977271	665	146
0	978751	666	125
0	980251	667	161
0	982207	668	189
0	983974	669	180
0	985449	670	143
0	986996	671	162
0	988321	672	120
0	989522	673	104
0	991124	674	147
0	992714	675	157
0	994206	676	131
0	995411	677	108
0	997085	678	159
0	998440	679	116
0	1000098	680	172
0	1001305	681	110
0	1003013	682	149
0	1004457	683	137
0	1005776	684	130
0	1007605	685	200
0	1009417	686	171
0	1010801	687	145
0	1012029	688	115
0	1013556	689	160
0	1014901	690	121
0	1016336	691	154
0	1017960	692	165
0	1019259	693	126
0	1020777	694	143
0	1022711	695	203
0	1023979	696	129
0	1025105	697	123
0	1026413	698	145
0	1027740	699	126
0	1029261	700	167
0	1030871	701	139
0	1032134	702	122
0	1033785	703	154
0	1035203	704	147
0	1036903	705	173
0	1038381	706	147
0	1039861	707	141
0	1041487	708	155
0	1042839	709	133
0	1044673	710	160
0	1045953	711	107
0	1047438	712	142
0	1048834	713	151
0	1050574	714	179
0	1052118	715	147
0	1053607	716	142
0	1055211	717	133
0	1056811	718	155
0	1058130	719	142
0	1059738	720	150
0	1061255	721	134
0	1062743	722	135
0	1064691	723	195
0	1066005	724	123
0	1067637	725	157
0	1069265	726	185
0	1070765	727	153
0	1071987	728	123
0	1072917	729	71
0	1074577	730	158
0	1076067	731	149
0	1077291	732	107
0	1078738	733	142
0	1080357	734	168
0	1081623	735	123
0	1082878	736	118
0	1084341	737	130
0	1085652	738	110
0	1087236	739	149
0	1088762	740	138
0	1090379	741	162
0	1091778	742	148
0	1093430	743	157
0	1094786	744	133
0	1096456	745	149
0	1097763	746	128
0	1098994	747	122
0	1100525	748	150
0	1102104	749	138
0	1103526	750	134
0	1104808	751	119
0	1106532	752	171
0	1107852	753	127
0	1109266	754	145
0	1110556	755	141
0	1112212	756	177
0	1113905	757	154
0	1115289	758	123
0	1117152	759	174
0	1118926	760	162
0	1120576	761	161
0	1122298	762	175
0	1123728	763	149
0	1125302	764	151
0	1126843	765	156
0	1128073	766	127
0	1129500	767	126
0	1131212	768	173
0	1132687	769	126
0	1134363	770	180
0	1135984	771	156
0	1137416	772	131
0	1138747	773	116
0	1139911	774	99
0	1141349	775	141
0	1142750	776	140
0	1144114	777	133
0	1145422	778	133
0	1146709	779	118
0	1148094	780	123
0	1149423	781	114
0	1150581	782	117
0	1152205	783	145
0	1153661	784	149
0	1155058	785	124
0	1156456	786	137
0	1158124	787	169
0	1159476	788	129
0	1161112	789	167
0	1162586	790	136
0	1163848	791	111
0	1165167	792	132
0	1166821	793	143
0	1168564	794	168
0	1170415	795	180
0	1171756	796	134
0	1173265	797	142
0	1174600	798	110
0	1176074	799	135
0	1177681	800	145
0	1179395	801	171
0	1180874	802	138
0	1182324	803	143
0	1183479	804	114
0	1185115	805	157
0	1186632	806	152
0	1188061	807	134
0	1189482	808	134
0	1190814	809	127
0	1192296	810	140
0	1193506	811	129
0	1195114	812	151
0	1196469	813	130
0	1197940	814	146
0	1199048	815	97
0	1200546	816	151
0	1201966	817	137
0	1204190	818	229
0	1205827	819	168
0	1207471	820	178
0	1208540	821	98
0	1209787	822	110
0	1211257	823	151
0	1212687	824	139
0	1214281	825	149
0	1215864	826	158
0	1217514	827	159
0	1219099	828	162
0	1220384	829	114
0	1222181	830	183
0	1223427	831	109
0	1225037	832	151
0	1226252	833	118
0	1227473	834	100
0	1228926	835	152
0	1230678	836	163
0	1232156	837	147
0	1233757	838	148
0	1234942	839	106
0	1236236	840	102
0	1237512	841	125
0	1239205	842	164
0	1240474	843	130
0	1242048	844	167
0	1243634	845	153
0	1245123	846	150
0	1246654	847	134
0	1248045	848	136
0	1249698	849	136
0	1251171	850	155
0	1252654	851	150
0	1253820	852	111
0	1255345	853	140
0	1256960	854	170
0	1258325	855	122
0	1259676	856	108
0	1261434	857	169
0	1262863	858	132
0	1263972	859	98
0	1265241	860	127
0	1266481	861	115
0	1268029	862	149
0	1269199	863	117
0	1270840	864	138
0	1272436	865	137
0	1274273	866	170
0	1275871	867	131
0	1277610	868	154
0	1279066	869	133
0	1280932	870	178
0	1282502	871	151
0	1283744	872	119
0	1284904	873	113
0	1286131	874	118
0	1287709	875	155
0	1288961	876	119
0	1290672	877	168
0	1292358	878	165
0	1294124	879	179
0	1295915	880	159
0	1297314	881	130
0	1298514	882	129
0	1300013	883	140
0	1301025	884	91
0	1302474	885	140
0	1303988	886	151
0	1305420	887	145
0	1306781	888	134
0	1307970	889	96
0	1309233	890	119
0	1310713	891	143
0	1311877	892	107
0	1313741	893	183
0	1315330	894	142
0	1317083	895	182
0	1318514	896	138
0	1319886	897	147
0	1321300	898	151
0	1322625	899	120
0	1323805	900	120
0	1324986	901	102
0	1326240	902	105
0	1327492	903	113
0	1328700	904	107
0	1330084	905	141
0	1331825	906	176
0	1333104	907	116
0	1334296	908	109
0	1335677	909	124
0	1336895	910	114
0	1338144	911	130
0	1339571	912	136
0	1340988	913	120
0	1342463	914	130
0	1343827	915	129
0	1345102	916	130
0	1346661	917	138
0	1348093	918	129
0	1349547	919	147
0	1351160	920	163
0	1352938	921	149
0	1354222	922	127
0	1355440	923	119
0	1356920	924	145
0	1358075	925	114
0	1359399	926	121
0	1361110	927	184
0	1362425	928	122
0	1363778	929	108
0	1365123	930	113
0	1366563	931	149
0	1368081	932	157
0	1369703	933	173
0	1370844	934	90
0	1372102	935	119
0	1373579	936	142
0	1375243	937	151
0	1376945	938	161
0	1378189	939	99
0	1379805	940	172
0	1381162	941	146
0	1382460	942	123
0	1384008	943	141
0	1385585	944	140
0	1387267	945	159
0	1388837	946	169
0	1390547	947	141
0	1392138	948	158
0	1393554	949	131
0	1395725	950	243
0	1397167	951	137
0	1398373	952	117
0	1400037	953	159
0	1401337	954	135
0	1402706	955	132
0	1404141	956	132
0	1405737	957	159
0	1407175	958	121
0	1408854	959	168
0	1410083	960	117
0	1411407	961	139
0	1412783	962	133
0	1414165	963	147
0	1415515	964	119
0	1416951	965	145
0	1418363	966	105
0	1419836	967	156
0	1420975	968	110
0	1422635	969	157
0	1424010	970	131
0	1425518	971	117
0	1426949	972	120
0	1428522	973	164
0	1429939	974	140
0	1431333	975	131
0	1432912	976	144
0	1434202	977	113
0	1435479	978	112
0	1436894	979	134
0	1438523	980	167
0	1440044	981	140
0	1441484	982	147
0	1442760	983	119
0	1444021	984	112
0	1445434	985	140
0	1447073	986	158
0	1448275	987	111
0	1449811	988	147
0	1451280	989	132
0	1452848	990	170
0	1454198	991	131
0	1455682	992	131
0	1456939	993	130
0	1458516	994	136
0	1459517	995	78
0	1460878	996	130
0	1462594	997	163
0	1464226	998	171
0	1465448	999	115
0	1466872	1000	130
0	1468441	1001	152
0	1469797	1002	127
0	1471357	1003	159
0	1472943	1004	149
0	1474468	1005	116
0	1475608	1006	97
0	1477546	1007	199
0	1479115	1008	140
0	1480832	1009	144
0	1481780	1010	80
0	1483346	1011	131
0	1484420	1012	85
0	1485922	1013	137
0	1487027	1014	102
0	1488461	1015	143
0	1489948	1016	156
0	1491415	1017	138
0	1492689	1018	119
0	1494239	1019	147
0	1495702	1020	153
0	1497097	1021	140
0	1498609	1022	141
0	1500090	1023	156
0	1501139	1024	102
0	1502716	1025	160
0	1504025	1026	124
0	1505783	1027	159
0	1507518	1028	158
0	1508940	1029	131
0	1510372	1030	122
0	1511419	1031	88
0	1512953	1032	129
0	1514219	1033	109
0	1515697	1034	155
0	1517207	1035	159
0	1518681	1036	149
0	1520361	1037	145
0	1521945	1038	155
0	1523459	1039	155
0	1524891	1040	122
0	1526502	1041	144
0	1528056	1042	161
0	1529542	1043	153
0	1530689	1044	106
0	1532102	1045	132
0	1533309	1046	112
0	1534681	1047	139
0	1536374	1048	184
0	1537843	1049	146
0	1539381	1050	124
0	1541021	1051	179
0	1542431	1052	157
0	1543675	1053	111
0	1544818	1054	96
0	1546502	1055	145
0	1548005	1056	142
0	1549406	1057	140
0	1550840	1058	159
0	1552489	1059	164
0	1554040	1060	145
0	1555544	1061	129
0	1557026	1062	147
0	1558843	1063	172
0	1560344	1064	168
0	1561952	1065	169
0	1563143	1066	98
0	1564076	1067	92
0	1565433	1068	122
0	1567001	1069	155
0	1568542	1070	143
0	1569919	1071	128
0	1571396	1072	128
0	1573023	1073	170
0	1574455	1074	115
0	1575620	1075	126
0	1577378	1076	173
0	1578790	1077	129
0	1580168	1078	143
0	1581789	1079	160
0	1583579	1080	160
0	1585408	1081	168
0	1587202	1082	185
0	1588457	1083	126
0	1590257	1084	165
0	1591603	1085	125
0	1593236	1086	160
0	1594645	1087	136
0	1596090	1088	152
0	1597746	1089	145
0	1599237	1090	141
0	1600919	1091	171
0	1602245	1092	121
0	1604018	1093	178
0	1605696	1094	169
0	1607102	1095	143
0	1608209	1096	96
0	1609621	1097	125
0	1611256	1098	150
0	1612502	1099	117
0	1613849	1100	127
0	1615048	1101	110
0	1616869	1102	192
0	1617878	1103	98
0	1619354	1104	131
0	1620878	1105	149
0	1622565	1106	170
0	1624392	1107	182
0	1626265	1108	180
0	1627775	1109	155
0	1629188	1110	117
0	1630450	1111	105
0	1631761	1112	118
0	1633107	1113	133
0	1634220	1114	98
0	1635876	1115	173
0	1637166	1116	145
0	1638683	1117	144
0	1640344	1118	170
0	1641684	1119	137
0	1643135	1120	131
0	1644549	1121	133
0	1645860	1122	114
0	1647434	1123	151
0	1649041	1124	158
0	1650533	1125	153
0	1651828	1126	126
0	1653223	1127	138
0	1654629	1128	125
0	1656178	1129	142
0	1657807	1130	173
0	1659556	1131	164
0	1660968	1132	143
0	1662809	1133	186
0	1664058	1134	114
0	1665586	1135	169
0	1667142	1136	165
0	1668521	1137	138
0	1670153	1138	157
0	1671605	1139	137
0	1672906	1140	111
0	1674478	1141	137
0	1675861	1142	134
0	1677618	1143	162
0	1679320	1144	169
0	1680526	1145	113
0	1681889	1146	120
0	1683287	1147	115
0	1684832	1148	136
0	1686511	1149	176
0	1688239	1150	176
0	1690008	1151	162
0	1691549	1152	144
0	1693245	1153	159
0	1694554	1154	130
0	1696274	1155	157
0	1697853	1156	146
0	1699252	1157	126
0	1700439	1158	108
0	1701901	1159	147
0	1703366	1160	135
0	1704948	1161	135
0	1706355	1162	128
0	1707645	1163	105
0	1709347	1164	161
0	1710650	1165	118
0	1712367	1166	164
0	1713811	1167	125
0	1715447	1168	161
0	1717067	1169	169
0	1718644	1170	159
0	1719821	1171	132
0	1721328	1172	130
0	1722902	1173	147
0	1724075	1174	110
0	1725633	1175	157
0	1727136	1176	146
0	1728848	1177	157
0	1730181	1178	112
0	1731383	1179	121
0	1732591	1180	118
0	1734175	1181	165
0	1735726	1182	168
0	1737040	1183	107
0	1738616	1184	143
0	1740351	1185	154
0	1741485	1186	103
0	1742888	1187	112
0	1744130	1188	117
0	1745673	1189	144
0	1747185	1190	158
0	1748425	1191	109
0	1749952	1192	148
0	1751109	1193	92
0	1752503	1194	123
0	1753963	1195	133
0	1755536	1196	132
0	1756916	1197	135
0	1758141	1198	120
0	1759669	1199	143
0	1760957	1200	108
0	1762292	1201	118
0	1763460	1202	99
0	1764755	1203	138
0	1766032	1204	112
0	1767219	1205	118
0	1768230	1206	90
0	1769699	1207	132
0	1771258	1208	152
0	1772555	1209	110
0	1773874	1210	101
0	1775565	1211	162
0	1777228	1212	152
0	1778409	1213	90
0	1779874	1214	140
0	1781420	1215	141
0	1782902	1216	129
0	1784249	1217	126
0	1785762	1218	140
0	1787247	1219	152
0	1788872	1220	159
0	1790194	1221	123
0	1791775	1222	152
0	1793037	1223	107
0	1794372	1224	128
0	1795954	1225	169
0	1797453	1226	150
0	1798948	1227	140
0	1800297	1228	124
0	1801619	1229	129
0	1803060	1230	135
0	1804450	1231	135
0	1805631	1232	104
0	1807338	1233	154
0	1809010	1234	181
0	1810448	1235	151
0	1812188	1236	173
0	1813604	1237	125
0	1814932	1238	125
0	1816606	1239	169
0	1818040	1240	138
0	1819331	1241	136
0	1821102	1242	164
0	1822784	1243	179
0	1824380	1244	147
0	1825643	1245	122
0	1827432	1246	172
0	1829028	1247	157
0	1830562	1248	131
0	1832022	1249	137
0	1833614	1250	152
0	1835227	1251	144
0	1837346	1252	212
0	1839053	1253	182
0	1840718	1254	154
0	1842430	1255	165
0	1843783	1256	132
0	1845168	1257	148
0	1846556	1258	145
0	1847805	1259	102
0	1849262	1260	137
0	1850679	1261	136
0	1851801	1262	111
0	1853380	1263	150
0	1854882	1264	127
0	1856031	1265	104
0	1857488	1266	146
0	1858841	1267	128
0	1860394	1268	156
0	1861956	1269	147
0	1863462	1270	156
0	1864982	1271	153
0	1866408	1272	127
0	1867577	1273	112
0	1868908	1274	142
0	1870354	1275	153
0	1872080	1276	171
0	1873344	1277	117
0	1874480	1278	107
0	1875946	1279	139
0	1877352	1280	130
0	1878581	1281	120
0	1879901	1282	111
0	1881281	1283	117
0	1882626	1284	114
0	1883949	1285	134
0	1885401	1286	137
0	1887139	1287	151
0	1888561	1288	133
0	1890133	1289	157
0	1891473	1290	134
0	1892933	1291	137
0	1894160	1292	118
0	1895605	1293	132
0	1897182	1294	150
0	1898746	1295	163
0	1900608	1296	185
0	1902119	1297	144
0	1903789	1298	157
0	1905501	1299	169
0	1907078	1300	151
0	1908536	1301	149
0	1909772	1302	119
0	1911475	1303	156
0	1913077	1304	153
0	1914346	1305	122
0	1915922	1306	139
0	1917428	1307	133
0	1918866	1308	139
0	1920188	1309	131
0	1921530	1310	120
0	1922964	1311	141
0	1924159	1312	116
0	1925910	1313	176
0	1927421	1314	156
0	1928896	1315	144
0	1930678	1316	191
0	1932179	1317	124
0	1933705	1318	129
0	1934950	1319	112
0	1936461	1320	135
0	1938093	1321	135
0	1939498	1322	140
0	1941062	1323	157
0	1942477	1324	126
0	1943986	1325	152
0	1945516	1326	155
0	1947109	1327	146
0	1948533	1328	145
0	1949853	1329	117
0	1951041	1330	122
0	1952344	1331	132
0	1953786	1332	135
0	1955205	1333	142
0	1956820	1334	148
0	1958124	1335	111
0	1959575	1336	154
0	1960935	1337	133
0	1962258	1338	128
0	1963742	1339	157
0	1965557	1340	191
0	1966688	1341	86
0	1968144	1342	137
0	1969663	1343	164
0	1971158	1344	138
0	1972868	1345	163
0	1974328	1346	147
0	1975510	1347	131
0	1976790	1348	113
0	1978146	1349	133
0	1979416	1350	118
0	1980743	1351	124
0	1982252	1352	158
0	1983887	1353	158
0	1985354	1354	136
0	1986922	1355	167
0	1988413	1356	150
0	1989972	1357	146
0	1991004	1358	97
0	1992457	1359	128
0	1993959	1360	142
0	1995247	1361	127
0	1996844	1362	152
0	1998332	1363	141
0	1999644	1364	125
0	2001110	1365	141
0	2002502	1366	111
0	2004272	1367	169
0	2005551	1368	118
0	2006850	1369	130
0	2008288	1370	144
0	2009596	1371	131
0	2011021	1372	124
0	2012599	1373	159
0	2014065	1374	131
0	2015679	1375	141
0	2017289	1376	155
0	2018573	1377	131
0	2019958	1378	132
0	2021438	1379	157
0	2022956	1380	146
0	2024324	1381	141
0	2025813	1382	140
0	2027008	1383	110
0	2028288	1384	141
0	2029807	1385	150
0	2031600	1386	164
0	2033106	1387	163
0	2034818	1388	173
0	2036185	1389	134
0	2037846	1390	167
0	2039143	1391	108
0	2040463	1392	117
0	2041703	1393	117
0	2042848	1394	120
0	2043943	1395	104
0	2045355	1396	127
0	2047104	1397	170
0	2048668	1398	163
0	2050180	1399	133
0	2051236	1400	92
0	2052783	1401	162
0	2054046	1402	122
0	2055611	1403	154
0	2056905	1404	123
0	2058447	1405	153
0	2059727	1406	149
0	2061375	1407	155
0	2062894	1408	144
0	2064317	1409	134
0	2065729	1410	142
0	2066948	1411	100
0	2068347	1412	150
0	2069691	1413	133
0	2071277	1414	167
0	2072585	1415	117
0	2073886	1416	130
0	2075295	1417	142
0	2076953	1418	163
0	2078698	1419	168
0	2080113	1420	131
0	2081767	1421	147
0	2083420	1422	158
0	2084554	1423	115
0	2086035	1424	130
0	2087409	1425	137
0	2088785	1426	129
0	2090258	1427	132
0	2091026	1428	65
0	2092315	1429	122
0	2093663	1430	130
0	2095163	1431	153
0	2096437	1432	119
0	2097819	1433	163
0	2099178	1434	150
0	2100776	1435	169
0	2102033	1436	110
0	2103370	1437	116
0	2104959	1438	156
0	2106535	1439	159
0	2108093	1440	154
0	2109442	1441	140
0	2110962	1442	123
0	2112348	1443	131
0	2113664	1444	121
0	2115271	1445	148
0	2116723	1446	121
0	2118462	1447	172
0	2119957	1448	154
0	2121705	1449	165
0	2123399	1450	160
0	2125038	1451	160
0	2126712	1452	179
0	2127791	1453	106
0	2129141	1454	123
0	2131138	1455	180
0	2132650	1456	141
0	2134240	1457	147
0	2135701	1458	140
0	2137240	1459	158
0	2138657	1460	141
0	2140100	1461	122
0	2141661	1462	154
0	2143297	1463	169
0	2144408	1464	100
0	2145790	1465	129
0	2147261	1466	144
0	2148839	1467	153
0	2150258	1468	134
0	2151921	1469	176
0	2153189	1470	114
0	2154553	1471	137
0	2155812	1472	114
0	2157125	1473	136
0	2158711	1474	155
0	2160155	1475	137
0	2161654	1476	146
0	2163303	1477	164
0	2164691	1478	133
0	2166220	1479	148
0	2168065	1480	203
0	2169931	1481	187
0	2171544	1482	160
0	2173137	1483	156
0	2174702	1484	158
0	2176336	1485	149
0	2177586	1486	123
0	2178712	1487	107
0	2180228	1488	157
0	2181749	1489	144
0	2183066	1490	123
0	2184522	1491	147
0	2186120	1492	147
0	2187661	1493	166
0	2189424	1494	180
0	2190526	1495	113
0	2191835	1496	120
0	2192965	1497	99
0	2194643	1498	171
0	2195989	1499	115
0	2197474	1500	155
0	2198904	1501	139
0	2200240	1502	115
0	2202006	1503	173
0	2203414	1504	141
0	2204744	1505	123
0	2206222	1506	143
0	2207635	1507	124
0	2209329	1508	167
0	2210837	1509	151
0	2212453	1510	150
0	2213814	1511	140
0	2215072	1512	111
0	2216119	1513	114
0	2217430	1514	120
0	2218992	1515	143
0	2220713	1516	158
0	2221990	1517	106
0	2223524	1518	157
0	2224904	1519	133
0	2226275	1520	129
0	2227554	1521	124
0	2228894	1522	119
0	2230066	1523	111
0	2231684	1524	143
0	2233128	1525	155
0	2234781	1526	160
0	2236337	1527	165
0	2237655	1528	115
0	2238687	1529	101
0	2239990	1530	131
0	2241609	1531	152
0	2242970	1532	118
0	2244142	1533	99
0	2245463	1534	138
0	2246769	1535	119
0	2247994	1536	102
0	2249697	1537	174
0	2251461	1538	167
0	2252892	1539	144
0	2254695	1540	189
0	2256201	1541	153
0	2257510	1542	138
0	2258870	1543	109
0	2260172	1544	107
0	2261516	1545	127
0	2263007	1546	150
0	2264271	1547	99
0	2265621	1548	123
0	2266943	1549	119
0	2268556	1550	149
0	2270180	1551	163
0	2271551	1552	130
0	2272984	1553	144
0	2274357	1554	142
0	2276047	1555	155
0	2277613	1556	161
0	2279117	1557	149
0	2280354	1558	124
0	2281587	1559	112
0	2283021	1560	132
0	2284323	1561	129
0	2286114	1562	162
0	2288081	1563	194
0	2289640	1564	140
0	2291359	1565	172
0	2293060	1566	160
0	2294882	1567	167
0	2296412	1568	141
0	2297904	1569	155
0	2299477	1570	175
0	2300618	1571	92
0	2301728	1572	97
0	2303217	1573	138
0	2304521	1574	113
0	2306167	1575	155
0	2307522	1576	122
0	2309006	1577	143
0	2310695	1578	158
0	2312133	1579	131
0	2313239	1580	106
0	2314411	1581	113
0	2315641	1582	131
0	2317201	1583	145
0	2318745	1584	149
0	2320222	1585	128
0	2322027	1586	172
0	2323634	1587	152
0	2325249	1588	162
0	2326571	1589	105
0	2327956	1590	137
0	2329239	1591	104
0	2330690	1592	156
0	2332083	1593	138
0	2333225	1594	95
0	2334532	1595	136
0	2336041	1596	162
0	2337189	1597	117
0	2338288	1598	104
0	2339827	1599	148
0	2341234	1600	135
0	2342693	1601	122
0	2344142	1602	122
0	2345778	1603	161
0	2347520	1604	171
0	2348698	1605	115
0	2350349	1606	158
0	2351876	1607	154
0	2353492	1608	133
0	2355218	1609	161
0	2356431	1610	121
0	2357615	1611	101
0	2358847	1612	111
0	2360386	1613	150
0	2361812	1614	137