version 3
run SimulationTime-432-20240108-13:24:33-3700
attr configname SimulationTime
attr datetime 20240108-13:24:33
attr datetimef 20240108-132433
attr experiment SimulationTime
attr inifile omnetpp.ini
attr iterationvars ""
attr iterationvarsd ""
attr iterationvarsf ""
attr measurement ""
attr network System
attr processid 3700
attr repetition 432
attr replication #432
attr resultdir results
attr runnumber 432
attr seedset 432
config **.cpu.rate 1000
config **.hd.rateProcessing 250
config **.webServer.web_server_rate 100
config **.p1 0.35
config **.p2 0.40
config network System
config num-rngs 4
config **.cpu.rng-0 0
config **.cpu.rng-1 1
config **.hd.rng-0 2
config **.webServer.rng-0 3
config repeat 500
config seed-set 432
config sim-time-limit 10000s
config **.client.numClients 40

vector 0 System.server.cpu requestCounterStat:vector ETV
attr recordingmode vector
attr source requestCounter
vector 1 System.server.hd utilizationHdStat:vector ETV
attr recordingmode vector
attr source utilizationHd
vector 2 System.server.cpu utilizationCpuStat:vector ETV
attr recordingmode vector
attr source utilizationCpu
vector 3 System.webServer utilizationWsStat:vector ETV
attr recordingmode vector
attr source utilizationWs
0	1752	1	161
0	3034	2	143
0	4443	3	130
0	5756	4	126
0	7317	5	148
0	8568	6	120
0	9824	7	137
0	11370	8	149
0	12831	9	138
0	14166	10	123
0	15368	11	113
0	16563	12	114
0	17848	13	122
0	19385	14	160
0	20940	15	158
0	22470	16	153
0	24068	17	143
0	25543	18	136
0	26986	19	126
0	28678	20	164
0	30626	21	189
0	32740	22	217
0	34149	23	138
0	35783	24	179
0	36827	25	101
0	38426	26	158
0	39710	27	101
0	41272	28	127
0	42932	29	169
0	44183	30	113
0	45860	31	160
0	47593	32	184
0	49045	33	143
0	50554	34	154
0	51735	35	110
0	53065	36	127
0	54696	37	180
0	56083	38	130
0	57697	39	155
0	59005	40	120
0	60683	41	141
0	62353	42	167
0	63725	43	131
0	64791	44	89
0	66464	45	170
0	67654	46	107
0	69232	47	151
0	70995	48	172
0	72476	49	142
0	74046	50	158
0	75392	51	125
0	76848	52	155
0	78347	53	146
0	79949	54	163
0	81428	55	150
0	82774	56	143
0	84372	57	151
0	85668	58	121
0	87002	59	131
0	88331	60	121
0	89472	61	122
0	90979	62	144
0	92297	63	131
0	93698	64	136
0	95214	65	139
0	96871	66	170
0	98572	67	170
0	100117	68	152
0	101667	69	151
0	103121	70	146
0	104165	71	101
0	105593	72	141
0	107078	73	146
0	108752	74	139
0	110274	75	131
0	111407	76	122
0	112500	77	104
0	113977	78	156
0	115250	79	112
0	116583	80	119
0	118212	81	176
0	119550	82	131
0	121424	83	193
0	123115	84	158
0	124439	85	141
0	126289	86	169
0	127877	87	137
0	129563	88	155
0	131328	89	160
0	132773	90	139
0	134447	91	151
0	136226	92	166
0	137474	93	101
0	138811	94	120
0	140244	95	132
0	141624	96	127
0	143364	97	177
0	145321	98	192
0	146619	99	109
0	148027	100	124
0	149695	101	169
0	151413	102	155
0	152768	103	120
0	154264	104	159
0	155556	105	105
0	157393	106	176
0	158924	107	128
0	160455	108	132
0	161676	109	98
0	163371	110	167
0	165260	111	188
0	166572	112	125
0	168240	113	157
0	169882	114	137
0	171037	115	108
0	172627	116	159
0	174228	117	150
0	176000	118	163
0	177350	119	139
0	178802	120	138
0	180169	121	136
0	181487	122	113
0	182947	123	131
0	184551	124	151
0	186088	125	160
0	187411	126	104
0	188870	127	146
0	190296	128	135
0	191823	129	154
0	193363	130	140
0	194802	131	138
0	196315	132	152
0	197575	133	105
0	199391	134	175
0	201168	135	170
0	202605	136	146
0	204135	137	149
0	205801	138	145
0	207117	139	129
0	208774	140	149
0	210064	141	117
0	211304	142	115
0	212723	143	138
0	214067	144	149
0	215885	145	185
0	217780	146	182
0	219352	147	155
0	220923	148	138
0	222712	149	152
0	224148	150	124
0	225846	151	167
0	227305	152	138
0	228883	153	155
0	230053	154	117
0	231544	155	152
0	232854	156	117
0	234286	157	127
0	235683	158	114
0	236971	159	113
0	238199	160	98
0	239700	161	136
0	241281	162	152
0	242939	163	157
0	244346	164	124
0	245789	165	148
0	247003	166	117
0	248396	167	148
0	249698	168	139
0	251279	169	154
0	252192	170	79
0	253787	171	164
0	255291	172	133
0	256434	173	106
0	257701	174	118
0	258902	175	124
0	260486	176	161
0	262128	177	153
0	263281	178	120
0	264458	179	104
0	265986	180	142
0	267106	181	103
0	268633	182	148
0	270210	183	172
0	271629	184	132
0	273348	185	158
0	274638	186	129
0	276355	187	154
0	277984	188	154
0	279506	189	129
0	280931	190	133
0	282542	191	174
0	284405	192	190
0	285895	193	147
0	287337	194	131
0	288681	195	121
0	289875	196	115
0	291578	197	198
0	293208	198	163
0	294824	199	153
0	296484	200	156
0	297772	201	113
0	299593	202	184
0	300901	203	115
0	302047	204	105
0	303379	205	121
0	304508	206	116
0	306306	207	153
0	307783	208	150
0	309414	209	156
0	311017	210	155
0	312488	211	150
0	313621	212	104
0	314843	213	127
0	316282	214	144
0	317909	215	156
0	319349	216	141
0	321030	217	164
0	322452	218	139
0	323882	219	151
0	325582	220	162
0	327070	221	143
0	328582	222	141
0	329916	223	129
0	331290	224	141
0	332531	225	128
0	334064	226	140
0	335330	227	113
0	336650	228	127
0	338264	229	163
0	339843	230	169
0	341503	231	181
0	342669	232	115
0	344405	233	179
0	346128	234	176
0	347326	235	107
0	348727	236	136
0	349854	237	98
0	351296	238	127
0	352615	239	120
0	354248	240	161
0	355620	241	133
0	356996	242	153
0	358546	243	151
0	359741	244	120
0	361451	245	181
0	362847	246	131
0	364551	247	155
0	365698	248	122
0	367131	249	128
0	368781	250	170
0	370191	251	147
0	371981	252	167
0	373504	253	154
0	374833	254	120
0	376269	255	123
0	378045	256	197
0	379514	257	140
0	380991	258	150
0	382398	259	132
0	383556	260	112
0	384822	261	139
0	385836	262	91
0	387348	263	149
0	388676	264	133
0	390179	265	146
0	391739	266	149
0	392985	267	117
0	394381	268	123
0	395787	269	147
0	396926	270	109
0	398445	271	142
0	399786	272	118
0	401243	273	130
0	402711	274	153
0	404200	275	164
0	405568	276	145
0	406948	277	135
0	408365	278	128
0	409677	279	117
0	410910	280	117
0	412409	281	138
0	414043	282	147
0	415521	283	147
0	416954	284	140
0	418494	285	151
0	420118	286	167
0	421469	287	114
0	422933	288	147
0	424443	289	133
0	426076	290	161
0	427571	291	140
0	428792	292	112
0	430300	293	141
0	431819	294	160
0	433193	295	131
0	434619	296	117
0	436167	297	137
0	437519	298	141
0	438994	299	134
0	440552	300	144
0	442390	301	193
0	443924	302	139
0	445244	303	125
0	446663	304	122
0	448115	305	151
0	449696	306	142
0	451167	307	138
0	453127	308	185
0	454867	309	171
0	456078	310	119
0	457463	311	126
0	458959	312	143
0	460321	313	123
0	461719	314	143
0	463360	315	144
0	464851	316	154
0	466265	317	123
0	467881	318	155
0	469178	319	126
0	470588	320	130
0	472151	321	170
0	473702	322	138
0	475369	323	158
0	477054	324	164
0	478457	325	126
0	479960	326	148
0	481404	327	109
0	483049	328	172
0	484549	329	151
0	485769	330	106
0	487006	331	114
0	488495	332	154
0	490187	333	151
0	491834	334	198
0	493333	335	138
0	494433	336	101
0	495775	337	123
0	497219	338	139
0	499100	339	182
0	500468	340	124
0	501827	341	128
0	503111	342	107
0	504343	343	101
0	505704	344	130
0	507018	345	133
0	508699	346	176
0	509915	347	119
0	511377	348	143
0	512921	349	155
0	514263	350	122
0	515553	351	135
0	516916	352	142
0	518409	353	134
0	520171	354	169
0	521427	355	105
0	522962	356	138
0	524529	357	154
0	525928	358	158
0	527443	359	134
0	529122	360	181
0	530403	361	112
0	531790	362	126
0	533359	363	156
0	534689	364	111
0	536069	365	121
0	537230	366	116
0	538802	367	157
0	540165	368	140
0	541386	369	116
0	542833	370	127
0	543983	371	103
0	545424	372	136
0	546908	373	137
0	548110	374	107
0	549510	375	143
0	551188	376	155
0	552745	377	134
0	554244	378	142
0	555610	379	131
0	557323	380	153
0	558877	381	137
0	560346	382	136
0	561450	383	97
0	562879	384	138
0	564045	385	109
0	565425	386	137
0	566936	387	154
0	568376	388	137
0	569773	389	132
0	571593	390	216
0	572985	391	117
0	574142	392	104
0	575591	393	136
0	577185	394	159
0	578672	395	162
0	580002	396	125
0	581534	397	125
0	583262	398	155
0	584580	399	111
0	585913	400	123
0	587270	401	128
0	588657	402	124
0	590249	403	171
0	591392	404	100
0	592967	405	168
0	594368	406	128
0	596089	407	164
0	597470	408	140
0	599065	409	146
0	600377	410	138
0	601640	411	124
0	602905	412	136
0	604097	413	109
0	605321	414	121
0	606448	415	84
0	608183	416	156
0	609582	417	140
0	611509	418	184
0	612678	419	110
0	614413	420	173
0	616161	421	177
0	617750	422	158
0	619228	423	145
0	620587	424	128
0	622008	425	144
0	623257	426	112
0	624746	427	144
0	626077	428	130
0	627352	429	102
0	629211	430	189
0	630749	431	163
0	632064	432	138
0	633752	433	157
0	635144	434	149
0	636635	435	134
0	637938	436	108
0	639114	437	109
0	640305	438	116
0	641755	439	123
0	643244	440	139
0	644621	441	136
0	646144	442	152
0	647466	443	129
0	648913	444	146
0	650538	445	174
0	652318	446	159
0	653981	447	150
0	655478	448	140
0	656626	449	81
0	658290	450	156
0	659812	451	147
0	661209	452	136
0	662994	453	190
0	664301	454	102
0	665716	455	144
0	667166	456	119
0	668676	457	133
0	670140	458	147
0	671475	459	158
0	672868	460	125
0	674257	461	118
0	675684	462	126
0	677052	463	131
0	678231	464	90
0	679621	465	133
0	681160	466	146
0	682441	467	128
0	683794	468	132
0	685314	469	157
0	686639	470	129
0	688100	471	136
0	689640	472	151
0	691297	473	146
0	692749	474	135
0	694274	475	152
0	695362	476	105
0	696894	477	159
0	698307	478	124
0	699620	479	120
0	701051	480	127
0	702591	481	161
0	704024	482	140
0	705521	483	152
0	706923	484	143
0	708262	485	130
0	709440	486	111
0	710702	487	123
0	711848	488	93
0	713219	489	128
0	714460	490	111
0	715717	491	128
0	716756	492	96
0	718180	493	151
0	719503	494	112
0	720688	495	128
0	722112	496	141
0	723446	497	119
0	725028	498	161
0	726121	499	104
0	727485	500	132
0	728780	501	122
0	730089	502	128
0	731651	503	143
0	732731	504	105
0	734133	505	131
0	735684	506	150
0	737208	507	121
0	738390	508	111
0	739812	509	137
0	741240	510	120
0	742936	511	163
0	744441	512	136
0	745990	513	158
0	747438	514	135
0	749168	515	167
0	750540	516	121
0	751956	517	151
0	753375	518	132
0	754758	519	130
0	756354	520	148
0	757588	521	111
0	758880	522	119
0	760259	523	134
0	762048	524	186
0	763853	525	192
0	765342	526	156
0	767089	527	178
0	768387	528	113
0	770012	529	160
0	771624	530	146
0	773348	531	151
0	775027	532	164
0	776705	533	167
0	777896	534	116
0	779216	535	133
0	780587	536	124
0	782243	537	165
0	783716	538	156
0	785082	539	123
0	786453	540	125
0	788003	541	143
0	789715	542	187
0	790953	543	97
0	792441	544	141
0	794083	545	159
0	795659	546	153
0	797298	547	172
0	798699	548	138
0	800075	549	137
0	801449	550	130
0	803107	551	175
0	804349	552	111
0	805746	553	154
0	807025	554	116
0	808240	555	104
0	809666	556	137
0	811254	557	161
0	812787	558	136
0	814223	559	135
0	815773	560	144
0	817413	561	171
0	818851	562	145
0	820311	563	137
0	821652	564	134
0	822936	565	119
0	824586	566	171
0	826304	567	157
0	828075	568	198
0	829548	569	146
0	830932	570	140
0	832102	571	99
0	833307	572	122
0	834849	573	145
0	836375	574	131
0	837516	575	114
0	838955	576	130
0	840759	577	199
0	841971	578	133
0	843593	579	167
0	845016	580	141
0	846641	581	132
0	847869	582	105
0	849326	583	140
0	850644	584	107
0	852037	585	114
0	853714	586	178
0	855153	587	134
0	856740	588	158
0	858360	589	165
0	859895	590	149
0	861434	591	156
0	863049	592	148
0	864707	593	167
0	866279	594	157
0	867878	595	148
0	869467	596	164
0	870749	597	125
0	872260	598	146
0	873630	599	127
0	875005	600	143
0	876365	601	135
0	877786	602	136
0	879082	603	117
0	880525	604	150
0	882154	605	160
0	883491	606	140
0	884618	607	96
0	885917	608	120
0	886999	609	119
0	888362	610	149
0	890020	611	185
0	891412	612	115
0	892668	613	109
0	894024	614	125
0	895893	615	192
0	897239	616	147
0	898691	617	141
0	900169	618	143
0	901634	619	150
0	903224	620	164
0	904623	621	126
0	905843	622	101
0	907395	623	169
0	908834	624	130
0	910504	625	155
0	912074	626	139
0	913431	627	132
0	914912	628	136
0	916204	629	133
0	917830	630	158
0	919362	631	147
0	920799	632	108
0	922273	633	147
0	923691	634	131
0	925019	635	115
0	926163	636	99
0	927946	637	180
0	929494	638	163
0	931143	639	154
0	932659	640	150
0	934086	641	122
0	935262	642	113
0	936737	643	140
0	938092	644	130
0	939491	645	126
0	940806	646	122
0	942218	647	151
0	943726	648	155
0	945340	649	161
0	946543	650	95
0	947979	651	121
0	949430	652	154
0	950848	653	147
0	952405	654	158
0	954090	655	148
0	955368	656	113
0	956665	657	120
0	957998	658	128
0	959163	659	118
0	960723	660	148
0	962087	661	121
0	963615	662	145
0	964739	663	115
0	966189	664	135
0	967547	665	137
0	969092	666	166
0	970417	667	132
0	971807	668	121
0	973090	669	128
0	974836	670	172
0	976215	671	120
0	977774	672	138
0	979226	673	119
0	980696	674	137
0	981985	675	126
0	983621	676	141
0	985022	677	118
0	986453	678	138
0	987687	679	107
0	989149	680	154
0	990397	681	129
0	991743	682	127
0	992772	683	92
0	994258	684	135
0	995624	685	139
0	997440	686	185
0	998693	687	124
0	1000462	688	186
0	1001896	689	145
0	1003360	690	150
0	1004754	691	129
0	1006071	692	138
0	1007591	693	155
0	1009032	694	132
0	1010631	695	174
0	1012118	696	146
0	1013440	697	137
0	1015056	698	189
0	1016533	699	126
0	1017985	700	124
0	1019414	701	158
0	1020584	702	129
0	1022130	703	147
0	1023887	704	184
0	1025430	705	146
0	1026929	706	136
0	1028313	707	131
0	1029744	708	126
0	1031364	709	155
0	1032818	710	140
0	1034509	711	158
0	1036040	712	142
0	1037740	713	161
0	1039477	714	184
0	1040683	715	101
0	1042398	716	150
0	1043995	717	146
0	1045309	718	121
0	1046743	719	125
0	1047950	720	113
0	1049513	721	148
0	1051087	722	159
0	1052723	723	163
0	1054076	724	112
0	1055947	725	184
0	1057633	726	173
0	1059006	727	124
0	1060690	728	175
0	1062269	729	168
0	1063854	730	135
0	1065292	731	135
0	1066876	732	141
0	1068608	733	155
0	1070309	734	158
0	1071814	735	154
0	1073505	736	160
0	1074911	737	123
0	1076851	738	193
0	1078218	739	116
0	1079322	740	94
0	1080775	741	128
0	1082058	742	118
0	1083410	743	119
0	1085028	744	171
0	1086605	745	156
0	1088196	746	148
0	1089780	747	133
0	1091363	748	138
0	1092652	749	112
0	1094065	750	155
0	1095434	751	132
0	1096947	752	144
0	1098479	753	151
0	1099870	754	124
0	1101294	755	145
0	1102842	756	153
0	1104404	757	155
0	1106178	758	163
0	1107627	759	136
0	1108968	760	119
0	1110372	761	133
0	1112109	762	132
0	1113584	763	142
0	1114935	764	132
0	1116472	765	146
0	1118317	766	192
0	1119836	767	166
0	1121032	768	117
0	1122796	769	181
0	1124340	770	144
0	1126033	771	176
0	1127531	772	145
0	1129101	773	141
0	1130864	774	170
0	1132223	775	130
0	1133858	776	146
0	1135234	777	111
0	1136472	778	127
0	1137637	779	114
0	1139065	780	132
0	1140400	781	128
0	1141604	782	119
0	1142953	783	124
0	1144383	784	115
0	1145807	785	145
0	1147284	786	136
0	1148716	787	137
0	1150088	788	137
0	1151510	789	129
0	1152702	790	114
0	1154052	791	133
0	1155699	792	148
0	1157388	793	176
0	1158554	794	107
0	1159675	795	100
0	1161158	796	148
0	1162465	797	112
0	1163928	798	144
0	1165429	799	130
0	1166879	800	146
0	1168284	801	144
0	1169857	802	154
0	1171471	803	159
0	1172848	804	138
0	1174213	805	128
0	1175539	806	139
0	1176875	807	121
0	1178190	808	112
0	1179447	809	104
0	1181146	810	173
0	1182440	811	109
0	1183742	812	117
0	1184745	813	96
0	1186241	814	135
0	1187557	815	121
0	1189267	816	173
0	1191073	817	163
0	1192617	818	137
0	1194112	819	138
0	1195764	820	168
0	1197284	821	133
0	1198696	822	141
0	1200116	823	151
0	1201716	824	161
0	1203261	825	142
0	1204429	826	113
0	1205919	827	145
0	1207315	828	135
0	1208905	829	157
0	1210573	830	162
0	1212151	831	171
0	1214066	832	198
0	1215817	833	162
0	1217199	834	135
0	1218852	835	174
0	1220375	836	144
0	1221864	837	144
0	1223302	838	131
0	1224408	839	99
0	1225615	840	129
0	1226774	841	122
0	1227989	842	138
0	1229497	843	143
0	1231142	844	162
0	1232647	845	156
0	1233951	846	133
0	1235543	847	151
0	1236814	848	112
0	1238166	849	119
0	1239620	850	144
0	1241432	851	169
0	1242868	852	123
0	1244090	853	117
0	1245363	854	130
0	1247010	855	158
0	1248515	856	150
0	1249986	857	152
0	1251639	858	168
0	1253179	859	143
0	1255195	860	204
0	1256429	861	107
0	1257743	862	131
0	1259165	863	141
0	1260598	864	130
0	1262097	865	136
0	1263224	866	94
0	1264842	867	159
0	1266541	868	152
0	1268100	869	154
0	1269459	870	127
0	1271174	871	160
0	1272818	872	173
0	1274500	873	173
0	1276034	874	147
0	1277440	875	125
0	1278742	876	133
0	1280273	877	162
0	1281841	878	155
0	1283255	879	143
0	1284414	880	101
0	1285850	881	149
0	1287329	882	134
0	1288852	883	134
0	1290242	884	135
0	1291871	885	150
0	1293182	886	120
0	1294768	887	151
0	1296049	888	124
0	1297848	889	152
0	1299425	890	165
0	1300662	891	116
0	1301706	892	95
0	1303214	893	147
0	1304797	894	146
0	1306276	895	144
0	1307721	896	130
0	1309375	897	145
0	1310723	898	123
0	1312217	899	139
0	1313371	900	104
0	1314822	901	136
0	1316216	902	131
0	1317545	903	136
0	1318752	904	122
0	1320263	905	154
0	1321839	906	153
0	1323550	907	174
0	1324830	908	113
0	1326357	909	134
0	1327954	910	155
0	1329627	911	180
0	1331149	912	133
0	1332377	913	111
0	1333754	914	114
0	1335142	915	137
0	1336192	916	97
0	1337472	917	133
0	1338794	918	123
0	1340270	919	147
0	1341422	920	108
0	1343006	921	161
0	1344616	922	161
0	1345900	923	133
0	1347101	924	104
0	1348352	925	94
0	1349843	926	136
0	1351527	927	171
0	1353111	928	165
0	1354642	929	152
0	1356057	930	139
0	1357213	931	105
0	1358727	932	153
0	1360356	933	174
0	1362034	934	157
0	1363655	935	162
0	1365195	936	141
0	1366403	937	105
0	1367883	938	125
0	1369430	939	132
0	1370486	940	98
0	1371587	941	88
0	1373030	942	142
0	1374562	943	145
0	1375966	944	125
0	1377409	945	122
0	1378685	946	117
0	1380157	947	155
0	1381652	948	152
0	1383031	949	136
0	1384384	950	129
0	1385527	951	94
0	1386908	952	124
0	1388284	953	117
0	1389264	954	83
0	1390696	955	155
0	1392081	956	126
0	1393312	957	102
0	1394550	958	103
0	1395934	959	127
0	1397512	960	150
0	1398765	961	116
0	1400511	962	171
0	1402249	963	153
0	1403293	964	95
0	1404744	965	120
0	1406373	966	160
0	1407692	967	116
0	1409092	968	141
0	1410607	969	154
0	1412007	970	132
0	1413567	971	137
0	1414937	972	139
0	1416644	973	156
0	1417871	974	138
0	1419341	975	135
0	1420973	976	159
0	1422429	977	147
0	1423980	978	176
0	1425408	979	139
0	1426897	980	121
0	1428275	981	123
0	1429811	982	177
0	1431644	983	188
0	1433414	984	159
0	1434858	985	121
0	1436516	986	159
0	1438056	987	133
0	1439663	988	156
0	1441312	989	164
0	1442740	990	146
0	1444306	991	167
0	1445984	992	175
0	1447576	993	165
0	1449221	994	158
0	1450818	995	160
0	1452411	996	168
0	1454030	997	166
0	1455489	998	160
0	1456895	999	123
0	1458391	1000	148
0	1459979	1001	139
0	1461541	1002	143
0	1462860	1003	128
0	1464239	1004	122
0	1465626	1005	126
0	1466878	1006	97
0	1468197	1007	122
0	1469483	1008	139
0	1470891	1009	129
0	1472187	1010	134
0	1473786	1011	146
0	1475598	1012	191
0	1476588	1013	89
0	1477903	1014	114
0	1479139	1015	127
0	1480200	1016	92
0	1481409	1017	124
0	1482807	1018	137
0	1484448	1019	138
0	1485769	1020	131
0	1487172	1021	134
0	1488380	1022	117
0	1489822	1023	119
0	1491088	1024	123
0	1492835	1025	192
0	1494223	1026	135
0	1496055	1027	185
0	1497616	1028	168
0	1499122	1029	147
0	1500451	1030	127
0	1501859	1031	133
0	1503607	1032	169
0	1505160	1033	148
0	1506650	1034	147
0	1507943	1035	126
0	1509100	1036	94
0	1510361	1037	120
0	1511644	1038	110
0	1512915	1039	122
0	1514217	1040	140
0	1515825	1041	173
0	1517311	1042	137
0	1518772	1043	144
0	1520129	1044	126
0	1521555	1045	153
0	1523339	1046	169
0	1524823	1047	153
0	1526153	1048	119
0	1527617	1049	137
0	1529069	1050	146
0	1530866	1051	166
0	1531938	1052	103
0	1533184	1053	125
0	1534819	1054	160
0	1536240	1055	122
0	1537722	1056	161
0	1539201	1057	144
0	1540946	1058	168
0	1542867	1059	176
0	1544105	1060	104
0	1545451	1061	125
0	1546739	1062	145
0	1548147	1063	139
0	1549530	1064	138
0	1550974	1065	143
0	1552589	1066	146
0	1554023	1067	127
0	1555426	1068	122
0	1556991	1069	156
0	1558172	1070	99
0	1559802	1071	155
0	1561327	1072	168
0	1562808	1073	156
0	1564164	1074	125
0	1565905	1075	182
0	1567483	1076	159
0	1569055	1077	151
0	1570591	1078	155
0	1572079	1079	137
0	1573670	1080	159
0	1575071	1081	140
0	1576375	1082	129
0	1577741	1083	133
0	1579290	1084	144
0	1580835	1085	158
0	1582246	1086	152
0	1583628	1087	129
0	1585016	1088	143
0	1586529	1089	134
0	1587768	1090	121
0	1589123	1091	134
0	1590528	1092	118
0	1591870	1093	129
0	1592854	1094	101
0	1594167	1095	138
0	1595482	1096	112
0	1596743	1097	126
0	1598397	1098	171
0	1600220	1099	210
0	1601475	1100	123
0	1602679	1101	121
0	1604094	1102	136
0	1605496	1103	129
0	1607186	1104	139
0	1608540	1105	131
0	1610328	1106	159
0	1611639	1107	116
0	1613270	1108	172
0	1614698	1109	145
0	1616388	1110	156
0	1617671	1111	110
0	1619069	1112	143
0	1620470	1113	128
0	1622000	1114	135
0	1623378	1115	145
0	1624856	1116	133
0	1626365	1117	162
0	1628224	1118	186
0	1629782	1119	155
0	1631177	1120	131
0	1632878	1121	168
0	1634443	1122	142
0	1635873	1123	149
0	1637399	1124	137
0	1638872	1125	142
0	1640381	1126	138
0	1641742	1127	124
0	1643303	1128	164
0	1644666	1129	128
0	1646269	1130	165
0	1647852	1131	134
0	1649246	1132	123
0	1650730	1133	143
0	1651946	1134	95
0	1653384	1135	137
0	1654850	1136	131
0	1656503	1137	178
0	1657710	1138	110
0	1659417	1139	170
0	1660724	1140	125
0	1662340	1141	153
0	1663793	1142	130
0	1665616	1143	174
0	1667096	1144	167
0	1668499	1145	134
0	1670025	1146	139
0	1670990	1147	92
0	1672598	1148	137
0	1674025	1149	132
0	1675187	1150	102
0	1676606	1151	128
0	1678285	1152	158
0	1679785	1153	153
0	1681593	1154	197
0	1683207	1155	139
0	1684556	1156	132
0	1685807	1157	124
0	1687405	1158	149
0	1688914	1159	160
0	1690648	1160	174
0	1692010	1161	121
0	1693867	1162	174
0	1695028	1163	92
0	1696408	1164	133
0	1697883	1165	136
0	1699053	1166	109
0	1700161	1167	109
0	1701759	1168	167
0	1703491	1169	177
0	1705258	1170	177
0	1706557	1171	114
0	1708316	1172	174
0	1709531	1173	116
0	1711135	1174	151
0	1712667	1175	151
0	1714256	1176	150
0	1715708	1177	133
0	1717048	1178	109
0	1718299	1179	118
0	1719903	1180	156
0	1721312	1181	150
0	1722797	1182	152
0	1724270	1183	140
0	1725762	1184	131
0	1727611	1185	190
0	1729236	1186	174
0	1730599	1187	114
0	1732098	1188	148
0	1733434	1189	133
0	1734916	1190	148
0	1736669	1191	172
0	1738211	1192	127
0	1739431	1193	107
0	1740514	1194	108
0	1742196	1195	165
0	1743797	1196	134
0	1745334	1197	144
0	1746673	1198	140
0	1748033	1199	129
0	1749126	1200	109
0	1750761	1201	160
0	1752089	1202	119
0	1753383	1203	123
0	1754653	1204	127
0	1756067	1205	147
0	1757672	1206	140
0	1758867	1207	116
0	1760118	1208	114
0	1761265	1209	102
0	1763082	1210	185
0	1764608	1211	149
0	1766334	1212	145
0	1767943	1213	160
0	1769577	1214	165
0	1771051	1215	125
0	1772527	1216	151
0	1773674	1217	106
0	1775057	1218	146
0	1776283	1219	117
0	1777649	1220	142
0	1778949	1221	121
0	1780518	1222	140
0	1781941	1223	130
0	1783374	1224	162
0	1784911	1225	144
0	1786330	1226	124
0	1788062	1227	193
0	1789590	1228	161
0	1790975	1229	132
0	1792718	1230	157
0	1794308	1231	159
0	1795585	1232	96
0	1797152	1233	142
0	1798448	1234	125
0	1799976	1235	137
0	1801693	1236	166
0	1803420	1237	148
0	1804849	1238	146
0	1806533	1239	153
0	1808201	1240	168
0	1809876	1241	180
0	1810982	1242	99
0	1812358	1243	141
0	1814091	1244	176
0	1815685	1245	147
0	1817069	1246	131
0	1818771	1247	163
0	1820158	1248	144
0	1821592	1249	111
0	1822892	1250	116
0	1824420	1251	153
0	1825576	1252	105
0	1826576	1253	89
0	1828128	1254	157
0	1829363	1255	110
0	1830677	1256	103
0	1832057	1257	129
0	1833340	1258	118
0	1834729	1259	128
0	1836243	1260	152
0	1837805	1261	165
0	1839119	1262	151
0	1840510	1263	138
0	1842129	1264	150
0	1843584	1265	146
0	1844903	1266	126
0	1845983	1267	105
0	1847345	1268	125
0	1848634	1269	120
0	1850162	1270	146
0	1851500	1271	117
0	1853081	1272	150
0	1854498	1273	144
0	1855717	1274	106
0	1857187	1275	141
0	1858606	1276	144
0	1859878	1277	141
0	1861422	1278	157
0	1862509	1279	114
0	1864216	1280	185
0	1865770	1281	137
0	1867010	1282	131
0	1868675	1283	188
0	1870382	1284	170
0	1871499	1285	108
0	1872902	1286	150
0	1874272	1287	131
0	1875641	1288	110
0	1876998	1289	130
0	1878482	1290	136
0	1879660	1291	115
0	1881218	1292	155
0	1882678	1293	133
0	1884085	1294	154
0	1885768	1295	166
0	1887020	1296	109
0	1888223	1297	114
0	1889906	1298	160
0	1891062	1299	109
0	1892514	1300	138
0	1893878	1301	129
0	1895427	1302	166
0	1897041	1303	161
0	1898763	1304	171
0	1900350	1305	156
0	1901985	1306	180
0	1903006	1307	106
0	1904336	1308	125
0	1905876	1309	173
0	1907177	1310	133
0	1908849	1311	163
0	1910057	1312	113
0	1911549	1313	145
0	1912926	1314	138
0	1914723	1315	174
0	1916223	1316	135
0	1917815	1317	155
0	1919267	1318	125
0	1920599	1319	141
0	1921895	1320	104
0	1923234	1321	130
0	1924732	1322	149
0	1926108	1323	135
0	1927421	1324	118
0	1928881	1325	127
0	1930251	1326	135
0	1932071	1327	175
0	1933426	1328	122
0	1935062	1329	155
0	1936551	1330	129
0	1938044	1331	150
0	1939235	1332	110
0	1941011	1333	183
0	1942247	1334	111
0	1943748	1335	132
0	1945484	1336	167
0	1946913	1337	146
0	1948613	1338	175
0	1950115	1339	149
0	1951577	1340	150
0	1953353	1341	157
0	1954746	1342	136
0	1956128	1343	127
0	1957494	1344	135
0	1958836	1345	115
0	1960475	1346	176
0	1962222	1347	162
0	1963526	1348	123
0	1964978	1349	147
0	1966650	1350	156
0	1968352	1351	161
0	1969697	1352	120
0	1971281	1353	137
0	1972944	1354	140
0	1974632	1355	151
0	1976583	1356	210
0	1978075	1357	155
0	1979395	1358	123
0	1980826	1359	140
0	1982674	1360	164
0	1984069	1361	134
0	1985565	1362	139
0	1986930	1363	140
0	1988230	1364	115
0	1989797	1365	148
0	1991293	1366	151
0	1992922	1367	162
0	1994298	1368	133
0	1995857	1369	166
0	1997177	1370	128
0	1998516	1371	118
0	1999722	1372	107
0	2001250	1373	161
0	2002563	1374	128
0	2004212	1375	164
0	2006192	1376	201
0	2007920	1377	195
0	2009590	1378	153
0	2010744	1379	127
0	2012176	1380	136
0	2013833	1381	146
0	2015519	1382	173
0	2016831	1383	117
0	2018383	1384	145
0	2019555	1385	121
0	2021402	1386	176
0	2022880	1387	141
0	2024674	1388	165
0	2026568	1389	187
0	2027770	1390	114
0	2029319	1391	152
0	2030673	1392	113
0	2032112	1393	138
0	2033413	1394	112
0	2034962	1395	156
0	2036253	1396	120
0	2037715	1397	137
0	2039071	1398	133
0	2040880	1399	182
0	2042237	1400	125
0	2043909	1401	125
0	2045421	1402	151
0	2046663	1403	113
0	2048077	1404	127
0	2049210	1405	112
0	2050623	1406	120
0	2051970	1407	122
0	2053320	1408	131
0	2054963	1409	158
0	2056479	1410	148
0	2057960	1411	148
0	2059338	1412	147
0	2060783	1413	146
0	2062130	1414	140
0	2063951	1415	176
0	2065291	1416	137
0	2066854	1417	154
0	2068133	1418	122
0	2069619	1419	139
0	2071209	1420	160
0	2072583	1421	131
0	2073980	1422	142
0	2075352	1423	113
0	2076761	1424	136
0	2078232	1425	146
0	2079640	1426	125
0	2081126	1427	139
0	2082428	1428	117
0	2083842	1429	137
0	2085316	1430	142
0	2086739	1431	126
0	2087903	1432	97
0	2089402	1433	158
0	2090880	1434	143
0	2092375	1435	146
0	2093929	1436	163
0	2095245	1437	121
0	2096608	1438	138
0	2098258	1439	169
0	2099713	1440	133
0	2100985	1441	123
0	2102352	1442	126
0	2104058	1443	167
0	2105485	1444	142
0	2107326	1445	176
0	2108844	1446	151
0	2110178	1447	119
0	2111584	1448	127
0	2113429	1449	182
0	2114922	1450	155
0	2116509	1451	144
0	2117958	1452	122
0	2119859	1453	186
0	2121413	1454	151
0	2123325	1455	209
0	2124659	1456	121
0	2126066	1457	154
0	2127373	1458	124
0	2128769	1459	157
0	2130219	1460	124
0	2131551	1461	135
0	2133206	1462	174
0	2134973	1463	168
0	2136270	1464	122
0	2137637	1465	136
0	2139293	1466	171
0	2140754	1467	152
0	2142290	1468	139
0	2143548	1469	101
0	2144889	1470	119
0	2146491	1471	157
0	2147823	1472	131
0	2149563	1473	183
0	2150942	1474	148
0	2152823	1475	180
0	2154042	1476	110
0	2155612	1477	157
0	2156855	1478	116
0	2158352	1479	160
0	2160258	1480	200
0	2161865	1481	160
0	2163347	1482	133
0	2164964	1483	154
0	2166608	1484	157
0	2168128	1485	147
0	2169850	1486	155
0	2171320	1487	133
0	2172554	1488	123
0	2173794	1489	137
0	2175312	1490	150
0	2176890	1491	147
0	2178274	1492	141
0	2179725	1493	144
0	2181290	1494	158
0	2182834	1495	137
0	2184155	1496	124
0	2185344	1497	96
0	2186583	1498	114
0	2187936	1499	132
0	2189684	1500	184
0	2191282	1501	149
0	2192170	1502	67
0	2193318	1503	113
0	2194807	1504	152
0	2195969	1505	95
0	2197137	1506	121
0	2198503	1507	135
0	2199582	1508	98
0	2201054	1509	149
0	2202445	1510	133
0	2204032	1511	146
0	2205234	1512	119
0	2206478	1513	125
0	2208075	1514	160
0	2209857	1515	183
0	2211297	1516	143
0	2212680	1517	140
0	2214106	1518	141
0	2215539	1519	134
0	2216937	1520	130
0	2218356	1521	126
0	2219638	1522	115
0	2221244	1523	163
0	2222947	1524	166
0	2224556	1525	128
0	2226015	1526	154
0	2227461	1527	137
0	2229075	1528	145
0	2231023	1529	193
0	2232501	1530	138
0	2234049	1531	143
0	2235316	1532	128
0	2236886	1533	135
0	2238417	1534	140
0	2240404	1535	188
0	2242073	1536	154
0	2243348	1537	128
0	2244994	1538	161
0	2246402	1539	129
0	2248104	1540	168
0	2249591	1541	144
0	2250947	1542	127
0	2252348	1543	124
0	2253739	1544	130
0	2255419	1545	165
0	2257261	1546	183
0	2258501	1547	121
0	2259856	1548	134
0	2261278	1549	115
0	2262580	1550	134
0	2264057	1551	152
0	2265560	1552	146
0	2266649	1553	108
0	2268309	1554	157
0	2269606	1555	132
0	2270790	1556	105
0	2272194	1557	145
0	2273513	1558	138
0	2274905	1559	127
0	2276405	1560	142
0	2277706	1561	126
0	2279286	1562	169
0	2280505	1563	110
0	2281822	1564	102
0	2283273	1565	122
0	2284547	1566	123
0	2285914	1567	132
0	2287133	1568	104
0	2288584	1569	138
0	2289703	1570	117
0	2291155	1571	139
0	2292686	1572	140
0	2293954	1573	113
0	2295592	1574	135
0	2297330	1575	159
0	2299010	1576	165
0	2300462	1577	145
0	2302018	1578	165
0	2303607	1579	156
0	2305135	1580	144
0	2306604	1581	146
0	2308063	1582	158
0	2309516	1583	136
0	2311256	1584	175
0	2312564	1585	125
0	2313949	1586	128
0	2315242	1587	134
0	2316715	1588	144
0	2318188	1589	132
0	2319695	1590	145
0	2321461	1591	177
0	2322900	1592	146
0	2324257	1593	132
0	2325648	1594	146
0	2327039	1595	132
0	2328837	1596	183
0	2330611	1597	193
0	2332118	1598	150
0	2333503	1599	128
0	2335118	1600	145
0	2336709	1601	156
0	2338206	1602	126
0	2339665	1603	146
0	2341218	1604	148
0	2342546	1605	121
0	2344360	1606	173
0	2345947	1607	156
0	2347269	1608	131
0	2348863	1609	161
0	2350310	1610	137
0	2351741	1611	116
0	2353025	1612	105
0	2354302	1613	122
0	2355765	1614	140