version 3
run SimulationTime-294-20240108-13:22:50-9788
attr configname SimulationTime
attr datetime 20240108-13:22:50
attr datetimef 20240108-132250
attr experiment SimulationTime
attr inifile omnetpp.ini
attr iterationvars ""
attr iterationvarsd ""
attr iterationvarsf ""
attr measurement ""
attr network System
attr processid 9788
attr repetition 294
attr replication #294
attr resultdir results
attr runnumber 294
attr seedset 294
config **.cpu.rate 1000
config **.hd.rateProcessing 250
config **.webServer.web_server_rate 100
config **.p1 0.35
config **.p2 0.40
config network System
config num-rngs 4
config **.cpu.rng-0 0
config **.cpu.rng-1 1
config **.hd.rng-0 2
config **.webServer.rng-0 3
config repeat 500
config seed-set 294
config sim-time-limit 10000s
config **.client.numClients 40

vector 0 System.server.cpu requestCounterStat:vector ETV
attr recordingmode vector
attr source requestCounter
vector 1 System.server.hd utilizationHdStat:vector ETV
attr recordingmode vector
attr source utilizationHd
vector 2 System.server.cpu utilizationCpuStat:vector ETV
attr recordingmode vector
attr source utilizationCpu
vector 3 System.webServer utilizationWsStat:vector ETV
attr recordingmode vector
attr source utilizationWs
0	1848	1	181
0	3565	2	156
0	5030	3	138
0	6635	4	158
0	7869	5	107
0	9627	6	181
0	10917	7	137
0	12490	8	148
0	14267	9	176
0	15550	10	117
0	16981	11	130
0	18407	12	123
0	19700	13	122
0	21340	14	155
0	22868	15	145
0	24573	16	164
0	25639	17	99
0	27338	18	170
0	28655	19	136
0	30468	20	155
0	31633	21	106
0	33219	22	161
0	34556	23	116
0	36221	24	154
0	37631	25	111
0	38963	26	125
0	40325	27	111
0	41929	28	147
0	43557	29	165
0	44874	30	123
0	46456	31	163
0	48116	32	173
0	49296	33	107
0	50899	34	150
0	52658	35	164
0	54028	36	107
0	55400	37	129
0	56960	38	141
0	58127	39	106
0	59701	40	164
0	61120	41	138
0	62552	42	137
0	64134	43	153
0	65583	44	134
0	66898	45	126
0	68192	46	117
0	69916	47	169
0	71219	48	122
0	72401	49	95
0	74339	50	190
0	75918	51	154
0	77710	52	169
0	79324	53	147
0	80948	54	163
0	82108	55	103
0	83444	56	117
0	84996	57	155
0	86551	58	160
0	88096	59	136
0	89668	60	162
0	91586	61	181
0	93113	62	126
0	95013	63	171
0	96222	64	122
0	97750	65	143
0	98943	66	106
0	100423	67	141
0	102070	68	154
0	103458	69	139
0	104806	70	134
0	106212	71	127
0	107697	72	148
0	109439	73	167
0	110835	74	129
0	112680	75	184
0	113987	76	142
0	115525	77	135
0	117220	78	170
0	118658	79	123
0	120285	80	155
0	121496	81	124
0	123133	82	164
0	124562	83	128
0	125888	84	115
0	127397	85	126
0	128933	86	151
0	130257	87	129
0	131884	88	176
0	133391	89	128
0	134791	90	122
0	136321	91	141
0	137828	92	142
0	139818	93	169
0	141083	94	126
0	142585	95	141
0	144072	96	144
0	145528	97	135
0	147210	98	179
0	148998	99	175
0	150720	100	182
0	151916	101	113
0	153645	102	184
0	155194	103	174
0	156670	104	143
0	158150	105	139
0	159748	106	151
0	161186	107	125
0	162700	108	143
0	164122	109	127
0	165380	110	138
0	166768	111	133
0	168173	112	148
0	169556	113	138
0	171025	114	134
0	172495	115	159
0	173968	116	142
0	175210	117	121
0	176677	118	140
0	177999	119	127
0	179374	120	133
0	180909	121	140
0	182313	122	139
0	183552	123	106
0	185381	124	218
0	186823	125	133
0	188334	126	148
0	190232	127	201
0	191876	128	147
0	193144	129	119
0	194540	130	132
0	196103	131	146
0	197553	132	131
0	199052	133	146
0	200160	134	109
0	201531	135	122
0	203121	136	147
0	204573	137	141
0	205879	138	125
0	207531	139	151
0	208766	140	113
0	210487	141	152
0	212000	142	140
0	213492	143	133
0	215136	144	169
0	216629	145	136
0	218327	146	159
0	219842	147	140
0	221507	148	150
0	222763	149	109
0	224118	150	137
0	225525	151	136
0	226937	152	149
0	227917	153	91
0	229237	154	139
0	230692	155	132
0	232298	156	159
0	233645	157	138
0	234926	158	110
0	236459	159	154
0	238001	160	130
0	239682	161	176
0	241031	162	146
0	242454	163	116
0	244032	164	147
0	245517	165	124
0	247086	166	144
0	248752	167	169
0	250249	168	142
0	251760	169	162
0	253348	170	166
0	254786	171	133
0	256112	172	119
0	257833	173	164
0	259188	174	138
0	260714	175	139
0	262215	176	144
0	263603	177	129
0	265138	178	132
0	266791	179	146
0	268220	180	141
0	269707	181	138
0	271304	182	142
0	273003	183	148
0	274523	184	135
0	275916	185	156
0	277251	186	128
0	278712	187	130
0	280157	188	132
0	281386	189	128
0	282940	190	146
0	284411	191	134
0	285795	192	145
0	287389	193	159
0	288732	194	142
0	290232	195	133
0	291725	196	152
0	292831	197	91
0	294551	198	165
0	296332	199	172
0	297862	200	154
0	299499	201	164
0	300847	202	135
0	302394	203	158
0	304088	204	187
0	305520	205	125
0	307140	206	145
0	308758	207	161
0	309923	208	124
0	311370	209	146
0	312795	210	135
0	314248	211	140
0	315635	212	130
0	317206	213	168
0	319001	214	180
0	320457	215	143
0	322066	216	156
0	323930	217	187
0	325427	218	152
0	326852	219	144
0	328442	220	162
0	329736	221	127
0	331125	222	128
0	332582	223	128
0	333692	224	109
0	334916	225	103
0	336431	226	142
0	337935	227	157
0	339247	228	139
0	340735	229	151
0	342405	230	158
0	343886	231	140
0	344963	232	116
0	346551	233	153
0	347681	234	91
0	349159	235	141
0	350339	236	119
0	351821	237	147
0	353195	238	131
0	354722	239	158
0	356039	240	119
0	357532	241	156
0	359030	242	131
0	360688	243	155
0	361982	244	131
0	363525	245	138
0	365068	246	146
0	366422	247	137
0	367799	248	126
0	369341	249	139
0	371007	250	150
0	372827	251	197
0	374033	252	135
0	375803	253	171
0	377357	254	139
0	378599	255	125
0	380419	256	197
0	381880	257	134
0	383316	258	141
0	384490	259	115
0	386303	260	169
0	387649	261	113
0	389178	262	136
0	390588	263	133
0	391961	264	120
0	393529	265	123
0	394848	266	130
0	396471	267	180
0	398128	268	162
0	399762	269	139
0	401304	270	138
0	402807	271	154
0	404326	272	154
0	406017	273	170
0	407287	274	131
0	408875	275	159
0	410283	276	135
0	411369	277	87
0	412780	278	148
0	414139	279	128
0	415310	280	117
0	416719	281	128
0	418092	282	132
0	419726	283	157
0	420969	284	108
0	422222	285	120
0	423372	286	103
0	424742	287	145
0	426420	288	157
0	428252	289	197
0	429711	290	135
0	431265	291	161
0	432736	292	142
0	434105	293	128
0	435973	294	193
0	437507	295	147
0	439199	296	161
0	440779	297	145
0	442080	298	122
0	443641	299	150
0	445299	300	174
0	446778	301	156
0	448183	302	134
0	449745	303	141
0	451259	304	151
0	453067	305	185
0	454559	306	141
0	455760	307	122
0	457648	308	195
0	459020	309	117
0	460376	310	122
0	461937	311	150
0	463536	312	154
0	464712	313	115
0	465880	314	89
0	467263	315	142
0	468902	316	150
0	470487	317	172
0	471899	318	133
0	473474	319	146
0	474925	320	141
0	476371	321	139
0	477982	322	160
0	479112	323	101
0	480502	324	131
0	482288	325	171
0	483602	326	109
0	485396	327	165
0	486933	328	152
0	488790	329	200
0	490534	330	176
0	491779	331	94
0	493056	332	134
0	494578	333	143
0	495870	334	117
0	497154	335	123
0	498760	336	145
0	500310	337	163
0	501912	338	135
0	503716	339	177
0	504996	340	116
0	506506	341	155
0	508145	342	166
0	509464	343	106
0	510938	344	151
0	512741	345	174
0	514227	346	155
0	515536	347	118
0	516693	348	96
0	517932	349	124
0	519357	350	131
0	520822	351	124
0	522052	352	135
0	523576	353	153
0	525464	354	197
0	527065	355	152
0	528608	356	142
0	530338	357	179
0	531812	358	125
0	533214	359	143
0	534396	360	104
0	536032	361	181
0	537583	362	168
0	539014	363	124
0	540526	364	157
0	541957	365	134
0	543111	366	95
0	544548	367	140
0	545790	368	115
0	547224	369	141
0	548696	370	150
0	550461	371	192
0	551723	372	113
0	553265	373	145
0	554610	374	116
0	555915	375	132
0	557541	376	173
0	558826	377	110
0	560654	378	185
0	562363	379	184
0	563519	380	102
0	565023	381	151
0	566505	382	149
0	568119	383	177
0	569808	384	160
0	571264	385	159
0	572475	386	104
0	573875	387	137
0	575395	388	149
0	576877	389	147
0	578294	390	131
0	579683	391	120
0	581291	392	165
0	582542	393	126
0	583871	394	118
0	585325	395	129
0	586927	396	145
0	588315	397	119
0	589679	398	121
0	591031	399	129
0	592677	400	174
0	594144	401	146
0	595588	402	157
0	596740	403	101
0	598045	404	132
0	599127	405	99
0	600402	406	122
0	601847	407	142
0	603324	408	136
0	604699	409	120
0	606043	410	124
0	607482	411	160
0	608719	412	110
0	610339	413	163
0	611430	414	108
0	613342	415	177
0	614724	416	135
0	616413	417	182
0	618079	418	165
0	619443	419	123
0	621097	420	142
0	622654	421	146
0	624262	422	161
0	625806	423	173
0	627351	424	132
0	628580	425	118
0	630063	426	134
0	631560	427	146
0	633046	428	155
0	634580	429	149
0	636085	430	145
0	637505	431	133
0	638917	432	149
0	640564	433	146
0	642397	434	176
0	643772	435	120
0	645582	436	175
0	646675	437	102
0	648088	438	156
0	649295	439	104
0	650625	440	116
0	652092	441	134
0	653753	442	152
0	655468	443	158
0	657387	444	188
0	659062	445	172
0	660278	446	97
0	661751	447	122
0	663241	448	137
0	664605	449	133
0	666105	450	146
0	667526	451	126
0	669328	452	175
0	670872	453	151
0	672263	454	132
0	673960	455	168
0	675270	456	115
0	676372	457	105
0	677877	458	176
0	679315	459	149
0	680598	460	103
0	682041	461	122
0	683699	462	175
0	685312	463	166
0	686589	464	118
0	687914	465	124
0	689729	466	174
0	691094	467	126
0	692395	468	124
0	693703	469	139
0	695534	470	193
0	696895	471	120
0	698727	472	185
0	700232	473	138
0	701774	474	147
0	703097	475	114
0	704527	476	135
0	705993	477	141
0	707456	478	126
0	708878	479	121
0	710137	480	105
0	711601	481	129
0	713080	482	158
0	714528	483	141
0	716476	484	177
0	717662	485	113
0	718914	486	125
0	720300	487	137
0	721596	488	117
0	722862	489	133
0	724338	490	112
0	726172	491	187
0	727706	492	139
0	729433	493	154
0	731111	494	177
0	732695	495	129
0	734236	496	154
0	735937	497	164
0	737296	498	120
0	738799	499	154
0	740179	500	126
0	741578	501	140
0	742659	502	100
0	744058	503	138
0	745663	504	164
0	747034	505	130
0	748438	506	125
0	749954	507	145
0	751718	508	167
0	753147	509	158
0	754899	510	168
0	756497	511	135
0	757925	512	145
0	759572	513	166
0	761274	514	175
0	762670	515	145
0	763938	516	121
0	765467	517	154
0	767186	518	144
0	768433	519	110
0	769607	520	118
0	771054	521	152
0	772722	522	171
0	773961	523	114
0	775194	524	112
0	776623	525	132
0	777810	526	106
0	778945	527	106
0	780414	528	132
0	782105	529	170
0	783453	530	136
0	784918	531	138
0	786602	532	163
0	787837	533	126
0	789155	534	107
0	790388	535	102
0	791662	536	121
0	792913	537	104
0	794691	538	173
0	796290	539	160
0	797284	540	88
0	798722	541	127
0	800048	542	131
0	801230	543	109
0	802640	544	121
0	804088	545	141
0	805393	546	120
0	806609	547	131
0	807970	548	122
0	809506	549	165
0	810996	550	142
0	812822	551	167
0	814453	552	160
0	816057	553	151
0	817715	554	165
0	819240	555	146
0	820438	556	99
0	822247	557	178
0	824014	558	170
0	825343	559	128
0	826694	560	125
0	828039	561	138
0	829758	562	174
0	831207	563	136
0	832467	564	115
0	833590	565	102
0	835280	566	157
0	837246	567	207
0	838693	568	138
0	840139	569	153
0	841592	570	129
0	843160	571	153
0	845034	572	205
0	846442	573	129
0	847861	574	148
0	849346	575	128
0	850737	576	128
0	852415	577	167
0	853755	578	123
0	854980	579	120
0	856564	580	156
0	857921	581	122
0	859628	582	154
0	861433	583	170
0	862837	584	139
0	864388	585	144
0	865843	586	148
0	867093	587	141
0	868729	588	149
0	870356	589	158
0	872002	590	168
0	873474	591	135
0	874827	592	130
0	876636	593	174
0	878241	594	170
0	879700	595	124
0	881108	596	129
0	882576	597	151
0	884211	598	172
0	885706	599	146
0	887119	600	151
0	888608	601	132
0	889847	602	134
0	890885	603	95
0	892247	604	125
0	893550	605	116
0	894860	606	119
0	896655	607	190
0	898053	608	133
0	899521	609	147
0	901104	610	163
0	902434	611	113
0	903704	612	127
0	905064	613	139
0	906320	614	123
0	907723	615	136
0	909514	616	204
0	910839	617	132
0	912610	618	174
0	914224	619	159
0	915659	620	149
0	917004	621	128
0	918434	622	125
0	920072	623	149
0	921895	624	212
0	923636	625	194
0	925194	626	151
0	926258	627	93
0	927800	628	145
0	929505	629	172
0	930988	630	139
0	932234	631	131
0	933367	632	88
0	934949	633	147
0	936600	634	160
0	937908	635	127
0	939086	636	95
0	940798	637	181
0	942275	638	146
0	943774	639	148
0	944925	640	105
0	946170	641	116
0	947573	642	138
0	948836	643	106
0	950518	644	161
0	952474	645	215
0	953598	646	113
0	955162	647	151
0	956785	648	146
0	958242	649	136
0	959814	650	156
0	961270	651	139
0	962849	652	158
0	964520	653	158
0	965769	654	124
0	967514	655	156
0	969079	656	108
0	970563	657	149
0	972250	658	154
0	973638	659	139
0	975411	660	187
0	976731	661	123
0	978551	662	151
0	979822	663	120
0	981181	664	134
0	982599	665	137
0	983985	666	139
0	985880	667	184
0	987653	668	172
0	988859	669	121
0	990221	670	126
0	991460	671	118
0	992559	672	90
0	994026	673	136
0	995605	674	150
0	996922	675	116
0	998639	676	160
0	999978	677	124
0	1001311	678	150
0	1002671	679	129
0	1003904	680	117
0	1005500	681	151
0	1007173	682	160
0	1008746	683	144
0	1010088	684	147
0	1011658	685	151
0	1013073	686	130
0	1014483	687	147
0	1016040	688	132
0	1017503	689	126
0	1019223	690	174
0	1020525	691	129
0	1021779	692	117
0	1023318	693	138
0	1024866	694	143
0	1026094	695	113
0	1027515	696	152
0	1028884	697	132
0	1030267	698	130
0	1031874	699	156
0	1033185	700	125
0	1034633	701	143
0	1036096	702	140
0	1037536	703	147
0	1038681	704	104
0	1040183	705	155
0	1041793	706	155
0	1043343	707	145
0	1044688	708	130
0	1045851	709	118
0	1047364	710	137
0	1048957	711	174
0	1050557	712	167
0	1052114	713	150
0	1053549	714	134
0	1054882	715	114
0	1056076	716	113
0	1057231	717	102
0	1058997	718	185
0	1060559	719	141
0	1062055	720	164
0	1063612	721	152
0	1065180	722	153
0	1066946	723	171
0	1068184	724	115
0	1069532	725	117
0	1071182	726	161
0	1072555	727	122
0	1074049	728	155
0	1075367	729	123
0	1076805	730	146
0	1078259	731	139
0	1079478	732	98
0	1080777	733	114
0	1082346	734	138
0	1084043	735	166
0	1085464	736	132
0	1086801	737	144
0	1088225	738	141
0	1089503	739	121
0	1091266	740	165
0	1092613	741	118
0	1093838	742	122
0	1095581	743	172
0	1096775	744	117
0	1097779	745	89
0	1099365	746	167
0	1100888	747	154
0	1102437	748	160
0	1103506	749	114
0	1105035	750	171
0	1106477	751	129
0	1108148	752	162
0	1109546	753	131
0	1110831	754	122
0	1112097	755	129
0	1113482	756	160
0	1115100	757	147
0	1116700	758	141
0	1118110	759	123
0	1119746	760	172
0	1121261	761	138
0	1122865	762	165
0	1124362	763	156
0	1125476	764	107
0	1127021	765	156
0	1128294	766	124
0	1129492	767	103
0	1130975	768	136
0	1132401	769	153
0	1133657	770	124
0	1135104	771	126
0	1136670	772	167
0	1138149	773	162
0	1139288	774	108
0	1140971	775	152
0	1142201	776	107
0	1143494	777	110
0	1145015	778	146
0	1146524	779	150
0	1148047	780	147
0	1149753	781	153
0	1151379	782	149
0	1152942	783	146
0	1154384	784	139
0	1155955	785	172
0	1157270	786	144
0	1158841	787	154
0	1160333	788	157
0	1161815	789	131
0	1163497	790	180
0	1165186	791	172
0	1166427	792	114
0	1167774	793	136
0	1168808	794	93
0	1170341	795	136
0	1171779	796	135
0	1173350	797	148
0	1175043	798	174
0	1176419	799	125
0	1177580	800	95
0	1179009	801	152
0	1180670	802	156
0	1181952	803	119
0	1183293	804	110
0	1184705	805	135
0	1185770	806	104
0	1187309	807	154
0	1188612	808	138
0	1189875	809	122
0	1191007	810	104
0	1192666	811	166
0	1194107	812	156
0	1195217	813	99
0	1196683	814	147
0	1197915	815	129
0	1199018	816	90
0	1200413	817	126
0	1201878	818	134
0	1203375	819	146
0	1204947	820	140
0	1206349	821	161
0	1207988	822	176
0	1209680	823	167
0	1210906	824	113
0	1212301	825	140
0	1213695	826	123
0	1215407	827	147
0	1216928	828	156
0	1218122	829	109
0	1219332	830	108
0	1221193	831	174
0	1222745	832	147
0	1224394	833	160
0	1225562	834	113
0	1227404	835	189
0	1228682	836	113
0	1229990	837	121
0	1231484	838	163
0	1232611	839	100
0	1234249	840	156
0	1235972	841	162
0	1237270	842	131
0	1238607	843	104
0	1240472	844	200
0	1242005	845	132
0	1243408	846	126
0	1244596	847	113
0	1245893	848	140
0	1247252	849	118
0	1248681	850	139
0	1250170	851	148
0	1251956	852	175
0	1253633	853	152
0	1255449	854	181
0	1257006	855	138
0	1258283	856	110
0	1259429	857	99
0	1260843	858	139
0	1262569	859	171
0	1263869	860	124
0	1265094	861	132
0	1266753	862	166
0	1268321	863	157
0	1269726	864	124
0	1271122	865	133
0	1272455	866	108
0	1273930	867	158
0	1275523	868	144
0	1276893	869	107
0	1278074	870	125
0	1279341	871	114
0	1280513	872	105
0	1281988	873	142
0	1283354	874	135
0	1284605	875	104
0	1286063	876	127
0	1287567	877	139
0	1288745	878	101
0	1290113	879	117
0	1291862	880	199
0	1293455	881	160
0	1294985	882	143
0	1296465	883	147
0	1298063	884	177
0	1299898	885	194
0	1301122	886	113
0	1302782	887	173
0	1304049	888	100
0	1305479	889	129
0	1306981	890	134
0	1307925	891	77
0	1309512	892	150
0	1310813	893	128
0	1312230	894	144
0	1313761	895	156
0	1314844	896	100
0	1316184	897	125
0	1317362	898	111
0	1318993	899	162
0	1320408	900	143
0	1321781	901	124
0	1323283	902	141
0	1324612	903	120
0	1325878	904	107
0	1327312	905	135
0	1328781	906	148
0	1330395	907	159
0	1331528	908	112
0	1333080	909	147
0	1334619	910	159
0	1336306	911	162
0	1337608	912	123
0	1338835	913	126
0	1340091	914	117
0	1342089	915	195
0	1343336	916	100
0	1344868	917	151
0	1346711	918	194
0	1348202	919	166
0	1349552	920	134
0	1350739	921	106
0	1351979	922	127
0	1353263	923	117
0	1354905	924	169
0	1356254	925	124
0	1357976	926	163
0	1359488	927	151
0	1361470	928	217
0	1362957	929	150
0	1364526	930	151
0	1366241	931	158
0	1367776	932	140
0	1369125	933	110
0	1370554	934	136
0	1372098	935	159
0	1373681	936	168
0	1374889	937	89
0	1376073	938	105
0	1377625	939	149
0	1379290	940	163
0	1380569	941	116
0	1381989	942	125
0	1383563	943	167
0	1385142	944	156
0	1386732	945	159
0	1388107	946	128
0	1389577	947	161
0	1391005	948	155
0	1392477	949	143
0	1394082	950	143
0	1395465	951	134
0	1396973	952	153
0	1398396	953	122
0	1399858	954	135
0	1401166	955	109
0	1402772	956	159
0	1404015	957	122
0	1405601	958	147
0	1407402	959	192
0	1408571	960	111
0	1410294	961	170
0	1411845	962	150
0	1413450	963	170
0	1414897	964	132
0	1415954	965	100
0	1417095	966	100
0	1418379	967	113
0	1419593	968	123
0	1421174	969	152
0	1422805	970	163
0	1423705	971	79
0	1425361	972	161
0	1426826	973	132
0	1428356	974	163
0	1429649	975	124
0	1430951	976	123
0	1432758	977	174
0	1434213	978	142
0	1435788	979	140
0	1437011	980	105
0	1438513	981	147
0	1439674	982	112
0	1440878	983	107
0	1442384	984	143
0	1443851	985	144
0	1445272	986	150
0	1446915	987	162
0	1448266	988	134
0	1449858	989	139
0	1451216	990	132
0	1452582	991	143
0	1454195	992	136
0	1455764	993	158
0	1457144	994	117
0	1458913	995	192
0	1460340	996	120
0	1461891	997	166
0	1463250	998	118
0	1464848	999	157
0	1466270	1000	136
0	1467751	1001	136
0	1469278	1002	142
0	1470337	1003	90
0	1471995	1004	179
0	1473416	1005	136
0	1474991	1006	130
0	1476494	1007	164
0	1478026	1008	135
0	1479302	1009	139
0	1480757	1010	137
0	1481832	1011	92
0	1483163	1012	94
0	1484467	1013	129
0	1485951	1014	127
0	1487557	1015	165
0	1489159	1016	147
0	1490711	1017	167
0	1492233	1018	141
0	1493785	1019	157
0	1495040	1020	113
0	1496452	1021	157
0	1497835	1022	138
0	1499414	1023	154
0	1500714	1024	125
0	1502552	1025	191
0	1504107	1026	146
0	1505241	1027	113
0	1506625	1028	111
0	1508333	1029	149
0	1509765	1030	134
0	1511192	1031	152
0	1512589	1032	136
0	1514035	1033	123
0	1515675	1034	161
0	1517275	1035	153
0	1518801	1036	153
0	1520090	1037	120
0	1521801	1038	164
0	1523341	1039	145
0	1524723	1040	130
0	1526289	1041	159
0	1527665	1042	113
0	1528946	1043	116
0	1530443	1044	144
0	1532117	1045	157
0	1533500	1046	126
0	1534929	1047	136
0	1536576	1048	158
0	1537915	1049	136
0	1539593	1050	168
0	1540917	1051	123
0	1542060	1052	96
0	1543418	1053	127
0	1544884	1054	147
0	1546371	1055	136
0	1547832	1056	148
0	1549612	1057	165
0	1551028	1058	137
0	1552450	1059	131
0	1554012	1060	136
0	1555384	1061	131
0	1556799	1062	144
0	1558140	1063	122
0	1559610	1064	145
0	1561175	1065	138
0	1562882	1066	148
0	1564358	1067	151
0	1565665	1068	134
0	1567396	1069	178
0	1568615	1070	103
0	1570326	1071	166
0	1571659	1072	118
0	1573185	1073	151
0	1574688	1074	148
0	1576016	1075	129
0	1577310	1076	121
0	1578713	1077	106
0	1579991	1078	127
0	1581539	1079	133
0	1582954	1080	131
0	1584433	1081	146
0	1585918	1082	130
0	1586994	1083	87
0	1588272	1084	109
0	1589392	1085	121
0	1590800	1086	141
0	1592293	1087	144
0	1593456	1088	118
0	1594970	1089	169
0	1596798	1090	182
0	1598636	1091	169
0	1600209	1092	154
0	1601642	1093	148
0	1603287	1094	192
0	1604874	1095	144
0	1606379	1096	138
0	1607546	1097	112
0	1608748	1098	111
0	1610339	1099	162
0	1611773	1100	148
0	1612981	1101	117
0	1614513	1102	141
0	1615967	1103	137
0	1617194	1104	112
0	1618547	1105	132
0	1619974	1106	130
0	1621514	1107	149
0	1623046	1108	141
0	1624497	1109	134
0	1625940	1110	137
0	1627232	1111	139
0	1628637	1112	144
0	1629779	1113	101
0	1630932	1114	104
0	1632110	1115	111
0	1633256	1116	107
0	1634704	1117	141
0	1635955	1118	118
0	1637479	1119	133
0	1639112	1120	157
0	1640599	1121	124
0	1641955	1122	127
0	1643430	1123	138
0	1645005	1124	146
0	1646656	1125	152
0	1648162	1126	151
0	1649731	1127	136
0	1651314	1128	142
0	1652841	1129	136
0	1654335	1130	132
0	1655415	1131	101
0	1656858	1132	134
0	1658455	1133	156
0	1659765	1134	135
0	1661407	1135	155
0	1662845	1136	147
0	1664044	1137	102
0	1665378	1138	107
0	1666535	1139	104
0	1667810	1140	107
0	1669730	1141	181
0	1671149	1142	132
0	1672438	1143	116
0	1673555	1144	108
0	1675032	1145	140
0	1676524	1146	153
0	1677923	1147	138
0	1679241	1148	133
0	1680543	1149	119
0	1682015	1150	134
0	1683142	1151	92
0	1684739	1152	154
0	1686049	1153	111
0	1687719	1154	147
0	1689188	1155	144
0	1691101	1156	180
0	1692743	1157	153
0	1694293	1158	133
0	1695882	1159	160
0	1697488	1160	170
0	1698796	1161	121
0	1700310	1162	159
0	1701927	1163	180
0	1703521	1164	147
0	1705060	1165	150
0	1706415	1166	134
0	1708356	1167	204
0	1709649	1168	116
0	1711172	1169	144
0	1712539	1170	135
0	1714143	1171	165
0	1715538	1172	130
0	1716638	1173	105
0	1717955	1174	112
0	1719498	1175	156
0	1720889	1176	134
0	1722228	1177	132
0	1723738	1178	135
0	1725271	1179	140
0	1726951	1180	160
0	1728011	1181	97
0	1729719	1182	163
0	1731097	1183	125
0	1732894	1184	190
0	1734730	1185	163
0	1736550	1186	193
0	1738230	1187	171
0	1739484	1188	117
0	1741082	1189	145
0	1742784	1190	164
0	1744314	1191	143
0	1745759	1192	124
0	1747110	1193	126
0	1748680	1194	149
0	1750073	1195	142
0	1751466	1196	142
0	1752893	1197	140
0	1754278	1198	132
0	1755433	1199	110
0	1756681	1200	114
0	1758104	1201	136
0	1759357	1202	120
0	1760856	1203	140
0	1762673	1204	176
0	1764527	1205	179
0	1766029	1206	153
0	1767567	1207	149
0	1769091	1208	151
0	1770532	1209	156
0	1772090	1210	158
0	1773372	1211	121
0	1774803	1212	116
0	1776356	1213	138
0	1778231	1214	172
0	1779633	1215	123
0	1781110	1216	140
0	1782689	1217	134
0	1784383	1218	171
0	1786083	1219	151
0	1787584	1220	141
0	1789280	1221	169
0	1790677	1222	132
0	1792157	1223	141
0	1793547	1224	127
0	1795130	1225	150
0	1796484	1226	139
0	1797785	1227	112
0	1799065	1228	113
0	1800802	1229	188
0	1802362	1230	162
0	1804066	1231	177
0	1805686	1232	167
0	1807140	1233	155
0	1808494	1234	121
0	1810330	1235	177
0	1811670	1236	137
0	1813154	1237	143
0	1814898	1238	181
0	1816198	1239	95
0	1817558	1240	138
0	1818904	1241	135
0	1820534	1242	183
0	1821950	1243	145
0	1823260	1244	131
0	1824834	1245	151
0	1826309	1246	142
0	1827628	1247	110
0	1829240	1248	153
0	1830707	1249	152
0	1832007	1250	118
0	1833278	1251	122
0	1834931	1252	184
0	1836546	1253	144
0	1837840	1254	117
0	1839443	1255	178
0	1840825	1256	131
0	1842234	1257	138
0	1843923	1258	174
0	1845345	1259	135
0	1846834	1260	119
0	1848302	1261	149
0	1849486	1262	113
0	1851069	1263	154
0	1852781	1264	181
0	1854212	1265	134
0	1856039	1266	190
0	1857434	1267	154
0	1858895	1268	124
0	1860007	1269	89
0	1861606	1270	173
0	1863048	1271	147
0	1864991	1272	200
0	1866257	1273	99
0	1867990	1274	180
0	1869142	1275	103
0	1870664	1276	139
0	1871914	1277	115
0	1872973	1278	104
0	1874472	1279	158
0	1875922	1280	146
0	1877135	1281	110
0	1878532	1282	132
0	1880143	1283	158
0	1881498	1284	130
0	1883142	1285	153
0	1884492	1286	123
0	1885815	1287	134
0	1887137	1288	111
0	1888267	1289	99
0	1889865	1290	160
0	1891388	1291	138
0	1892989	1292	156
0	1893889	1293	75
0	1895021	1294	97
0	1896879	1295	173
0	1898033	1296	101
0	1899274	1297	134
0	1900687	1298	132
0	1901979	1299	119
0	1903317	1300	130
0	1904443	1301	99
0	1905946	1302	146
0	1907239	1303	116
0	1908452	1304	114
0	1909757	1305	126
0	1911179	1306	127
0	1912675	1307	135
0	1914207	1308	155
0	1915542	1309	128
0	1916651	1310	107
0	1918129	1311	137
0	1919444	1312	134
0	1920856	1313	145
0	1922296	1314	161
0	1923724	1315	153
0	1925235	1316	136
0	1926825	1317	169
0	1928192	1318	140
0	1929512	1319	125
0	1930794	1320	128
0	1932283	1321	156
0	1933722	1322	122
0	1934991	1323	132
0	1936365	1324	137
0	1937758	1325	116
0	1938933	1326	116
0	1940379	1327	147
0	1941627	1328	113
0	1942973	1329	125
0	1944108	1330	93
0	1945434	1331	129
0	1947119	1332	184
0	1948654	1333	156
0	1950195	1334	146
0	1951739	1335	157
0	1953488	1336	148
0	1954764	1337	109
0	1956234	1338	127
0	1957849	1339	162
0	1959358	1340	145
0	1961169	1341	152
0	1962417	1342	115
0	1964180	1343	172
0	1965458	1344	139
0	1966677	1345	108
0	1968012	1346	120
0	1969413	1347	120
0	1970733	1348	121
0	1972423	1349	161
0	1974052	1350	149
0	1975241	1351	92
0	1976756	1352	154
0	1978373	1353	166
0	1979736	1354	114
0	1981001	1355	118
0	1982745	1356	181
0	1984100	1357	126
0	1985291	1358	100
0	1986693	1359	161
0	1988090	1360	129
0	1989374	1361	111
0	1990912	1362	147
0	1992524	1363	163
0	1994047	1364	148
0	1995594	1365	142
0	1996972	1366	131
0	1998338	1367	123
0	1999691	1368	138
0	2001315	1369	163
0	2002789	1370	128
0	2004128	1371	108
0	2005528	1372	143
0	2006751	1373	112
0	2008128	1374	126
0	2009608	1375	147
0	2011093	1376	132
0	2012502	1377	148
0	2013699	1378	104
0	2015068	1379	132
0	2016737	1380	153
0	2018150	1381	102
0	2019759	1382	148
0	2021375	1383	143
0	2022950	1384	154
0	2024600	1385	165
0	2026093	1386	146
0	2027597	1387	129
0	2029351	1388	159
0	2030920	1389	130
0	2032171	1390	111
0	2033517	1391	137
0	2034923	1392	123
0	2036382	1393	126
0	2037913	1394	142
0	2039315	1395	129
0	2040932	1396	150
0	2042560	1397	167
0	2044133	1398	154
0	2045545	1399	113
0	2046486	1400	79
0	2047870	1401	121
0	2049413	1402	146
0	2050827	1403	139
0	2052032	1404	100
0	2053519	1405	150
0	2055079	1406	157
0	2056714	1407	150
0	2058288	1408	131
0	2059590	1409	129
0	2061578	1410	204
0	2063115	1411	148
0	2064799	1412	177
0	2065991	1413	91
0	2067162	1414	96
0	2068554	1415	101
0	2069893	1416	122
0	2071220	1417	122
0	2072719	1418	136
0	2074388	1419	174
0	2075993	1420	155
0	2077543	1421	153
0	2078937	1422	155
0	2080221	1423	145
0	2081424	1424	116
0	2082691	1425	130
0	2084024	1426	126
0	2085335	1427	126
0	2086510	1428	102
0	2087823	1429	126
0	2089309	1430	132
0	2090548	1431	106
0	2092101	1432	148
0	2093454	1433	136
0	2094806	1434	113
0	2096026	1435	105
0	2097175	1436	100
0	2098600	1437	136
0	2100067	1438	138
0	2101418	1439	152
0	2102719	1440	123
0	2104094	1441	132
0	2105388	1442	121
0	2106812	1443	115
0	2108387	1444	142
0	2109628	1445	108
0	2110922	1446	125
0	2112576	1447	145
0	2113877	1448	114
0	2115085	1449	107
0	2116627	1450	140
0	2118021	1451	137
0	2119688	1452	160
0	2121359	1453	164
0	2122941	1454	155
0	2124340	1455	134
0	2125854	1456	163
0	2127705	1457	172
0	2129071	1458	129
0	2130813	1459	177
0	2132325	1460	162
0	2134042	1461	184
0	2135281	1462	112
0	2136704	1463	140
0	2138233	1464	140
0	2139595	1465	129
0	2141064	1466	128
0	2142292	1467	131
0	2144079	1468	174
0	2145755	1469	165
0	2147058	1470	129
0	2148448	1471	127
0	2150046	1472	165
0	2151348	1473	131
0	2152696	1474	135
0	2153931	1475	102
0	2155404	1476	160
0	2157188	1477	175
0	2158599	1478	144
0	2159996	1479	122
0	2161626	1480	162
0	2163220	1481	161
0	2164840	1482	141
0	2166457	1483	152
0	2167703	1484	113
0	2169501	1485	157
0	2170810	1486	118
0	2172381	1487	178
0	2173515	1488	105
0	2174727	1489	109
0	2176423	1490	168
0	2178237	1491	175
0	2179447	1492	117
0	2181130	1493	154
0	2182719	1494	160
0	2184439	1495	175
0	2185663	1496	101
0	2186869	1497	95
0	2188332	1498	154
0	2189699	1499	116
0	2191124	1500	133
0	2192379	1501	114
0	2193860	1502	146
0	2195213	1503	136
0	2196933	1504	175
0	2198536	1505	150
0	2200216	1506	173
0	2201490	1507	127
0	2202928	1508	131
0	2204436	1509	133
0	2206248	1510	172
0	2207700	1511	131
0	2208989	1512	120
0	2210572	1513	164
0	2212037	1514	144
0	2213619	1515	135
0	2215175	1516	153
0	2216861	1517	163
0	2218318	1518	144
0	2219725	1519	118
0	2220974	1520	107
0	2222439	1521	124
0	2223518	1522	110
0	2224920	1523	117
0	2226680	1524	175
0	2228130	1525	143
0	2229440	1526	119
0	2231323	1527	174
0	2232624	1528	112
0	2234136	1529	137
0	2235599	1530	143
0	2236942	1531	128
0	2238352	1532	153
0	2239509	1533	102
0	2240824	1534	126
0	2242530	1535	163
0	2244361	1536	186
0	2245670	1537	116
0	2247086	1538	153
0	2248567	1539	144
0	2250011	1540	150
0	2251590	1541	146
0	2253201	1542	152
0	2254830	1543	148
0	2256223	1544	120
0	2257526	1545	128
0	2258963	1546	142
0	2260450	1547	144
0	2262363	1548	174
0	2263674	1549	120
0	2264912	1550	112
0	2266403	1551	156
0	2267799	1552	137
0	2269437	1553	145
0	2271015	1554	159
0	2272075	1555	97
0	2273737	1556	165
0	2274945	1557	115
0	2276279	1558	111
0	2277887	1559	161
0	2279393	1560	154
0	2281179	1561	177
0	2282591	1562	135
0	2284102	1563	136
0	2285548	1564	129
0	2286883	1565	124
0	2288276	1566	132
0	2289823	1567	128
0	2291281	1568	143
0	2292632	1569	130
0	2294200	1570	138
0	2295444	1571	111
0	2297375	1572	186
0	2298586	1573	114
0	2300138	1574	143
0	2301789	1575	168
0	2303276	1576	146
0	2304501	1577	116
0	2305800	1578	110
0	2307306	1579	141
0	2308480	1580	112
0	2310009	1581	136
0	2311451	1582	129
0	2312724	1583	132
0	2314029	1584	136
0	2315512	1585	140
0	2316822	1586	125
0	2318143	1587	140
0	2319700	1588	168
0	2321240	1589	155
0	2322692	1590	140
0	2324167	1591	138
0	2325757	1592	171
0	2327109	1593	143
0	2328382	1594	104
0	2329826	1595	151
0	2331082	1596	113
0	2332428	1597	147
0	2333764	1598	123
0	2335037	1599	122
0	2336836	1600	185
0	2338006	1601	99
0	2339534	1602	149
0	2340914	1603	143
0	2342599	1604	170
0	2344425	1605	171
0	2345731	1606	131
0	2347014	1607	126
0	2348623	1608	162
0	2350220	1609	158
0	2351837	1610	171
0	2353451	1611	151
0	2354879	1612	137
0	2356042	1613	104
0	2357345	1614	124