version 3
run SimulationTime-478-20240107-16:20:53-19468
attr configname SimulationTime
attr datetime 20240107-16:20:53
attr datetimef 20240107-162053
attr experiment SimulationTime
attr inifile omnetpp.ini
attr iterationvars ""
attr iterationvarsd ""
attr iterationvarsf ""
attr measurement ""
attr network System
attr processid 19468
attr repetition 478
attr replication #478
attr resultdir results
attr runnumber 478
attr seedset 478
config **.cpu.rate 1000
config **.hd.rateProcessing 250
config **.webServer.web_server_rate 100
config **.p1 0.35
config **.p2 0.40
config network System
config num-rngs 4
config **.cpu.rng-0 0
config **.cpu.rng-1 1
config **.hd.rng-0 2
config **.webServer.rng-0 3
config repeat 500
config seed-set 478
config sim-time-limit 10000s
config **.client.numClients 40

vector 0 System.server.cpu requestCounterStat:vector ETV
attr recordingmode vector
attr source requestCounter
vector 1 System.server.hd utilizationHdStat:vector ETV
attr recordingmode vector
attr source utilizationHd
vector 2 System.server.cpu utilizationCpuStat:vector ETV
attr recordingmode vector
attr source utilizationCpu
vector 3 System.webServer utilizationWsStat:vector ETV
attr recordingmode vector
attr source utilizationWs
0	2044	1	213
0	3634	2	175
0	4983	3	146
0	6095	4	109
0	7331	5	127
0	8577	6	115
0	9924	7	126
0	11313	8	136
0	13042	9	158
0	14250	10	122
0	15693	11	146
0	17186	12	148
0	18567	13	134
0	20364	14	182
0	22121	15	174
0	23553	16	155
0	24973	17	131
0	26222	18	122
0	27677	19	136
0	29340	20	169
0	30860	21	155
0	32546	22	157
0	33674	23	105
0	34868	24	113
0	36642	25	179
0	37810	26	113
0	39151	27	118
0	40991	28	175
0	42581	29	145
0	44247	30	154
0	45594	31	140
0	47065	32	146
0	48694	33	176
0	49927	34	112
0	51463	35	151
0	53020	36	150
0	54556	37	141
0	56059	38	144
0	57562	39	132
0	59177	40	161
0	60374	41	128
0	61885	42	144
0	63226	43	126
0	64812	44	171
0	66159	45	122
0	67552	46	142
0	68954	47	127
0	70579	48	150
0	72080	49	140
0	73702	50	144
0	75032	51	129
0	76450	52	131
0	77995	53	168
0	79340	54	124
0	80873	55	142
0	82661	56	197
0	84283	57	149
0	85862	58	156
0	87449	59	134
0	88795	60	120
0	90316	61	142
0	91422	62	105
0	92590	63	117
0	94296	64	153
0	95771	65	142
0	97156	66	118
0	98996	67	151
0	100457	68	130
0	101738	69	118
0	103373	70	171
0	104799	71	139
0	106404	72	150
0	107867	73	148
0	109270	74	120
0	110802	75	131
0	112508	76	161
0	114074	77	161
0	115607	78	160
0	117036	79	136
0	118827	80	185
0	120446	81	142
0	121873	82	150
0	123515	83	163
0	124850	84	132
0	126530	85	171
0	128009	86	146
0	129282	87	128
0	130762	88	161
0	132291	89	156
0	133933	90	166
0	135276	91	134
0	136757	92	132
0	138247	93	139
0	139352	94	88
0	140974	95	155
0	142271	96	116
0	143980	97	180
0	145243	98	102
0	146817	99	145
0	148263	100	128
0	149784	101	142
0	151249	102	132
0	152767	103	137
0	154069	104	131
0	155271	105	109
0	156668	106	118
0	158012	107	129
0	159511	108	130
0	161106	109	140
0	162473	110	139
0	163504	111	106
0	164798	112	119
0	166247	113	144
0	167757	114	143
0	169194	115	130
0	170437	116	128
0	171855	117	139
0	173111	118	129
0	174640	119	134
0	176009	120	131
0	177560	121	144
0	178775	122	102
0	180359	123	167
0	181672	124	126
0	182902	125	111
0	184486	126	159
0	186258	127	183
0	187535	128	126
0	188767	129	129
0	190185	130	124
0	191455	131	131
0	193039	132	159
0	194649	133	149
0	195844	134	106
0	197322	135	143
0	198688	136	123
0	200161	137	136
0	201700	138	138
0	203452	139	169
0	205072	140	152
0	206375	141	114
0	207725	142	129
0	209041	143	125
0	210255	144	109
0	211137	145	83
0	212526	146	118
0	214003	147	152
0	215562	148	160
0	217059	149	142
0	218388	150	133
0	219772	151	121
0	221581	152	170
0	223246	153	160
0	224709	154	142
0	226385	155	163
0	227937	156	161
0	229347	157	139
0	230989	158	145
0	232643	159	151
0	234207	160	146
0	235354	161	118
0	236832	162	155
0	238361	163	156
0	239834	164	128
0	241187	165	126
0	242607	166	133
0	244154	167	154
0	245490	168	131
0	246796	169	119
0	248304	170	152
0	249605	171	124
0	250687	172	103
0	252360	173	164
0	253628	174	105
0	254793	175	124
0	256013	176	113
0	257512	177	138
0	258557	178	88
0	260233	179	157
0	261456	180	117
0	262941	181	132
0	264479	182	159
0	266039	183	169
0	267750	184	182
0	269124	185	127
0	270572	186	143
0	272065	187	158
0	273328	188	126
0	274526	189	107
0	276205	190	163
0	277352	191	108
0	278641	192	120
0	280197	193	157
0	281632	194	140
0	283234	195	161
0	284855	196	168
0	286343	197	137
0	287901	198	159
0	289142	199	122
0	290406	200	128
0	292033	201	144
0	293471	202	131
0	294844	203	128
0	296269	204	136
0	297573	205	129
0	299066	206	140
0	300584	207	119
0	301777	208	96
0	303416	209	154
0	304970	210	150
0	306427	211	124
0	307805	212	125
0	308984	213	112
0	310408	214	137
0	311955	215	166
0	313284	216	112
0	314782	217	149
0	316234	218	129
0	317667	219	130
0	318898	220	125
0	320368	221	129
0	321604	222	107
0	322807	223	108
0	324348	224	146
0	325839	225	146
0	327475	226	153
0	328837	227	115
0	330338	228	126
0	331620	229	113
0	333392	230	168
0	334922	231	147
0	336441	232	122
0	337855	233	123
0	339634	234	178
0	340799	235	100
0	342446	236	152
0	343960	237	145
0	345508	238	157
0	346708	239	117
0	348073	240	129
0	349266	241	98
0	350875	242	164
0	352313	243	121
0	353772	244	128
0	355158	245	141
0	356418	246	125
0	357810	247	127
0	359524	248	189
0	361136	249	131
0	362603	250	127
0	364187	251	143
0	365723	252	157
0	366900	253	112
0	368264	254	133
0	369439	255	98
0	370729	256	139
0	372014	257	124
0	373590	258	167
0	374829	259	122
0	376327	260	136
0	377772	261	140
0	378954	262	99
0	380560	263	151
0	382348	264	165
0	383676	265	119
0	385093	266	134
0	386409	267	107
0	387759	268	137
0	389160	269	146
0	390344	270	98
0	391565	271	122
0	393339	272	169
0	394855	273	151
0	396386	274	136
0	397885	275	158
0	399437	276	151
0	400962	277	148
0	402452	278	143
0	403903	279	130
0	405272	280	129
0	406525	281	132
0	408067	282	153
0	409845	283	185
0	411069	284	109
0	412780	285	158
0	414170	286	131
0	415626	287	145
0	417478	288	205
0	418595	289	96
0	420274	290	177
0	421708	291	145
0	423317	292	172
0	424692	293	132
0	426024	294	131
0	427411	295	144
0	428469	296	95
0	429940	297	140
0	431281	298	132
0	432856	299	158
0	434149	300	117
0	435743	301	163
0	437351	302	169
0	438660	303	120
0	440172	304	149
0	441539	305	138
0	443001	306	139
0	444597	307	151
0	446372	308	182
0	448090	309	189
0	449914	310	188
0	451313	311	122
0	452570	312	108
0	454146	313	157
0	455800	314	149
0	457398	315	157
0	459214	316	173
0	460713	317	146
0	462309	318	149
0	463697	319	125
0	465375	320	166
0	466914	321	166
0	468500	322	163
0	470281	323	160
0	472501	324	243
0	474635	325	225
0	476146	326	150
0	477603	327	140
0	479115	328	145
0	480634	329	134
0	481830	330	120
0	483257	331	126
0	484810	332	168
0	486485	333	166
0	488010	334	156
0	489717	335	160
0	491399	336	179
0	492689	337	135
0	494744	338	230
0	496186	339	105
0	497504	340	124
0	499174	341	171
0	500691	342	146
0	501937	343	107
0	503295	344	125
0	504884	345	142
0	506458	346	149
0	507766	347	111
0	508927	348	104
0	510301	349	125
0	511937	350	150
0	513767	351	167
0	515163	352	141
0	516535	353	127
0	517850	354	116
0	519253	355	142
0	520584	356	122
0	521957	357	134
0	523473	358	139
0	524919	359	143
0	526323	360	110
0	527730	361	124
0	529150	362	137
0	530339	363	108
0	531713	364	129
0	533111	365	133
0	534631	366	157
0	536471	367	181
0	537929	368	139
0	539698	369	180
0	541067	370	125
0	542589	371	129
0	544014	372	134
0	545701	373	170
0	547253	374	137
0	548764	375	132
0	550072	376	123
0	551536	377	153
0	552971	378	146
0	554404	379	150
0	555762	380	110
0	557248	381	123
0	559047	382	178
0	560517	383	143
0	562003	384	163
0	563626	385	136
0	565291	386	174
0	566821	387	155
0	568225	388	139
0	569753	389	147
0	571183	390	122
0	572766	391	142
0	574157	392	142
0	575497	393	125
0	576828	394	114
0	578054	395	111
0	579380	396	125
0	580987	397	146
0	582451	398	127
0	583711	399	123
0	585173	400	144
0	586581	401	129
0	587544	402	82
0	589168	403	149
0	590668	404	141
0	592181	405	140
0	593741	406	165
0	595522	407	176
0	596833	408	126
0	598649	409	193
0	600226	410	151
0	601641	411	126
0	603067	412	131
0	604527	413	151
0	606003	414	151
0	607492	415	140
0	609448	416	193
0	610876	417	153
0	612328	418	129
0	613760	419	125
0	615486	420	156
0	616944	421	141
0	618243	422	122
0	619431	423	109
0	620802	424	120
0	622461	425	154
0	623869	426	133
0	625494	427	170
0	627192	428	151
0	628606	429	135
0	630043	430	149
0	631683	431	155
0	633004	432	124
0	634184	433	113
0	635802	434	123
0	637062	435	113
0	638436	436	119
0	640012	437	157
0	641563	438	154
0	642805	439	107
0	644544	440	179
0	646214	441	151
0	647833	442	158
0	649194	443	118
0	650282	444	93
0	651582	445	117
0	653045	446	162
0	654601	447	143
0	656051	448	141
0	657396	449	148
0	658658	450	124
0	660366	451	163
0	661846	452	129
0	663403	453	142
0	664812	454	154
0	666481	455	192
0	668028	456	146
0	669460	457	129
0	671262	458	175
0	672945	459	164
0	674257	460	116
0	675837	461	149
0	676966	462	88
0	678506	463	145
0	679555	464	102
0	680815	465	113
0	682416	466	156
0	683577	467	92
0	685093	468	133
0	686626	469	158
0	688505	470	193
0	690088	471	140
0	691731	472	154
0	693239	473	129
0	694843	474	159
0	696295	475	123
0	697909	476	163
0	699150	477	116
0	700334	478	95
0	701873	479	156
0	703510	480	149
0	705072	481	161
0	706454	482	139
0	707871	483	140
0	709370	484	154
0	710654	485	109
0	712104	486	135
0	713103	487	102
0	714342	488	114
0	715562	489	127
0	717580	490	208
0	718979	491	142
0	720466	492	136
0	722093	493	156
0	723891	494	191
0	725611	495	179
0	726893	496	129
0	728236	497	128
0	729782	498	135
0	731379	499	146
0	732746	500	109
0	734339	501	144
0	735856	502	134
0	737324	503	129
0	738746	504	127
0	740549	505	168
0	741849	506	111
0	743876	507	212
0	744946	508	97
0	746116	509	97
0	747440	510	120
0	748929	511	144
0	750027	512	101
0	751355	513	111
0	752729	514	135
0	754479	515	163
0	756162	516	166
0	757420	517	101
0	758778	518	121
0	760360	519	147
0	762118	520	178
0	763762	521	169
0	765422	522	169
0	766803	523	136
0	768372	524	140
0	769519	525	94
0	771011	526	145
0	772495	527	135
0	773818	528	124
0	775094	529	113
0	776557	530	153
0	778118	531	154
0	779694	532	149
0	780984	533	113
0	782798	534	183
0	784115	535	120
0	785662	536	162
0	787122	537	137
0	788462	538	125
0	789761	539	134
0	791151	540	134
0	792594	541	124
0	793923	542	118
0	795510	543	158
0	796913	544	134
0	798359	545	145
0	799803	546	135
0	801031	547	121
0	802413	548	123
0	804189	549	163
0	805948	550	177
0	807184	551	111
0	808760	552	177
0	810529	553	168
0	811581	554	97
0	813225	555	149
0	814483	556	119
0	816001	557	157
0	817420	558	144
0	818715	559	122
0	820495	560	170
0	821912	561	130
0	823181	562	118
0	824807	563	151
0	826221	564	137
0	827883	565	159
0	829538	566	170
0	831188	567	163
0	832403	568	110
0	833761	569	133
0	835170	570	137
0	836917	571	198
0	838232	572	114
0	839612	573	133
0	841013	574	130
0	842570	575	146
0	844056	576	151
0	845369	577	124
0	846862	578	148
0	848575	579	158
0	849973	580	122
0	851251	581	131
0	852992	582	182
0	854464	583	153
0	855814	584	127
0	857406	585	163
0	858921	586	160
0	860480	587	166
0	861921	588	152
0	863305	589	137
0	864894	590	139
0	866229	591	122
0	867647	592	119
0	869285	593	143
0	870494	594	94
0	871782	595	135
0	873090	596	121
0	874441	597	134
0	876064	598	168
0	877871	599	178
0	879754	600	199
0	881146	601	133
0	882605	602	138
0	884147	603	155
0	885403	604	111
0	887000	605	144
0	888292	606	107
0	889660	607	145
0	891217	608	146
0	892778	609	138
0	894112	610	122
0	895494	611	125
0	896673	612	100
0	898256	613	166
0	899873	614	158
0	901335	615	149
0	902666	616	118
0	904045	617	124
0	905347	618	105
0	906294	619	74
0	907729	620	139
0	908939	621	99
0	910475	622	159
0	912369	623	189
0	913725	624	123
0	915044	625	110
0	916441	626	126
0	918051	627	161
0	919775	628	167
0	921283	629	137
0	922729	630	156
0	924127	631	131
0	925478	632	134
0	927065	633	150
0	928357	634	111
0	929946	635	158
0	931446	636	155
0	932941	637	136
0	934422	638	144
0	936024	639	171
0	937555	640	169
0	939024	641	140
0	940210	642	123
0	941613	643	130
0	942922	644	104
0	944410	645	141
0	945898	646	137
0	947647	647	176
0	949060	648	132
0	950629	649	164
0	952384	650	173
0	953745	651	120
0	955080	652	116
0	956702	653	161
0	957907	654	100
0	959140	655	114
0	960833	656	170
0	962083	657	111
0	963671	658	157
0	965118	659	126
0	966767	660	143
0	968269	661	145
0	969743	662	157
0	971287	663	157
0	972623	664	117
0	973719	665	107
0	975175	666	135
0	976954	667	170
0	978459	668	140
0	979665	669	95
0	981322	670	171
0	982703	671	130
0	984190	672	144
0	985812	673	155
0	987339	674	134
0	988666	675	118
0	989852	676	103
0	991290	677	137
0	992913	678	154
0	994640	679	184
0	995604	680	90
0	996971	681	120
0	998491	682	165
0	999585	683	95
0	1001336	684	178
0	1002956	685	169
0	1004231	686	140
0	1005798	687	156
0	1007495	688	168
0	1008896	689	128
0	1010427	690	149
0	1011778	691	132
0	1013316	692	161
0	1014498	693	115
0	1015947	694	144
0	1017123	695	109
0	1018300	696	112
0	1019831	697	134
0	1021272	698	132
0	1022811	699	174
0	1024117	700	118
0	1025375	701	115
0	1026530	702	102
0	1028180	703	173
0	1029838	704	153
0	1031236	705	119
0	1032875	706	162
0	1034310	707	130
0	1035813	708	140
0	1037373	709	159
0	1038608	710	109
0	1040037	711	124
0	1041566	712	156
0	1043056	713	155
0	1044497	714	144
0	1045749	715	107
0	1047264	716	136
0	1048799	717	160
0	1050031	718	103
0	1051792	719	160
0	1053454	720	166
0	1055102	721	157
0	1056576	722	147
0	1058091	723	134
0	1059532	724	140
0	1061075	725	146
0	1062290	726	104
0	1063849	727	156
0	1065323	728	131
0	1066487	729	117
0	1067928	730	119
0	1069207	731	130
0	1070766	732	138
0	1072280	733	143
0	1073683	734	138
0	1074976	735	112
0	1076680	736	159
0	1078318	737	187
0	1079813	738	144
0	1081178	739	136
0	1082430	740	112
0	1083852	741	131
0	1085643	742	170
0	1087201	743	151
0	1088711	744	133
0	1090208	745	144
0	1091641	746	138
0	1092992	747	126
0	1094188	748	111
0	1095344	749	107
0	1096786	750	126
0	1098253	751	130
0	1099821	752	161
0	1101446	753	170
0	1103221	754	192
0	1104654	755	168
0	1106119	756	148
0	1107437	757	119
0	1108851	758	135
0	1110412	759	128
0	1111943	760	143
0	1113484	761	158
0	1114971	762	144
0	1116282	763	120
0	1117808	764	139
0	1119188	765	145
0	1120743	766	148
0	1122234	767	156
0	1123896	768	163
0	1125145	769	124
0	1126507	770	122
0	1128066	771	144
0	1129573	772	148
0	1130881	773	115
0	1132571	774	161
0	1134083	775	153
0	1135317	776	121
0	1136607	777	121
0	1138185	778	151
0	1139693	779	147
0	1141183	780	146
0	1142723	781	163
0	1144153	782	123
0	1145741	783	165
0	1147211	784	143
0	1148931	785	177
0	1150250	786	118
0	1151932	787	179
0	1153271	788	122
0	1154680	789	144
0	1155791	790	101
0	1157299	791	145
0	1158674	792	134
0	1159909	793	130
0	1161302	794	152
0	1162826	795	159
0	1164510	796	169
0	1165925	797	124
0	1167277	798	113
0	1168890	799	188
0	1170441	800	133
0	1171861	801	139
0	1173157	802	111
0	1174339	803	115
0	1175565	804	109
0	1176721	805	111
0	1177880	806	104
0	1179477	807	158
0	1181041	808	149
0	1182440	809	150
0	1183828	810	128
0	1185301	811	142
0	1186523	812	123
0	1187675	813	103
0	1189023	814	125
0	1190416	815	148
0	1191719	816	132
0	1193228	817	142
0	1194472	818	109
0	1196185	819	164
0	1197752	820	141
0	1199697	821	184
0	1201254	822	154
0	1202936	823	145
0	1204376	824	123
0	1205580	825	109
0	1207312	826	165
0	1208547	827	120
0	1209876	828	112
0	1211554	829	159
0	1212919	830	105
0	1214194	831	104
0	1215846	832	149
0	1217368	833	151
0	1219045	834	168
0	1220923	835	193
0	1222434	836	118
0	1223745	837	114
0	1224932	838	108
0	1226619	839	162
0	1228205	840	162
0	1229434	841	108
0	1230592	842	111
0	1232125	843	140
0	1233863	844	171
0	1235311	845	131
0	1236780	846	138
0	1238425	847	160
0	1239912	848	140
0	1241379	849	146
0	1242760	850	141
0	1244325	851	152
0	1245974	852	160
0	1247424	853	139
0	1249065	854	162
0	1250692	855	160
0	1252633	856	204
0	1254436	857	196
0	1255932	858	135
0	1257525	859	150
0	1258513	860	90
0	1259990	861	152
0	1261508	862	149
0	1263071	863	142
0	1264243	864	123
0	1265607	865	123
0	1266825	866	117
0	1268149	867	113
0	1269365	868	129
0	1270546	869	112
0	1272223	870	147
0	1273866	871	162
0	1275275	872	134
0	1276798	873	168
0	1278206	874	133
0	1279731	875	152
0	1281341	876	149
0	1282803	877	145
0	1284222	878	122
0	1285852	879	151
0	1287106	880	122
0	1288853	881	156
0	1290604	882	164
0	1292234	883	153
0	1293409	884	104
0	1294685	885	101
0	1296430	886	152
0	1297539	887	106
0	1298985	888	149
0	1300423	889	139
0	1301990	890	149
0	1303354	891	131
0	1304774	892	129
0	1306058	893	103
0	1307801	894	150
0	1309263	895	141
0	1310498	896	108
0	1311762	897	119
0	1313104	898	123
0	1314369	899	110
0	1315472	900	101
0	1316919	901	134
0	1318566	902	160
0	1319888	903	125
0	1321371	904	134
0	1322909	905	127
0	1324283	906	111
0	1325706	907	142
0	1327254	908	145
0	1328593	909	142
0	1330169	910	148
0	1331708	911	144
0	1333346	912	149
0	1334850	913	151
0	1336214	914	131
0	1337855	915	150
0	1339205	916	127
0	1340624	917	124
0	1342224	918	169
0	1343801	919	144
0	1344952	920	119
0	1346480	921	157
0	1347940	922	143
0	1349565	923	148
0	1351460	924	194
0	1352937	925	120
0	1354343	926	123
0	1356093	927	175
0	1357423	928	123
0	1358524	929	116
0	1360075	930	161
0	1361545	931	155
0	1363293	932	165
0	1364522	933	92
0	1366100	934	147
0	1367638	935	145
0	1368937	936	128
0	1370576	937	162
0	1371745	938	120
0	1373286	939	148
0	1374578	940	122
0	1375964	941	123
0	1377397	942	130
0	1378911	943	131
0	1380727	944	181
0	1382232	945	124
0	1383807	946	164
0	1385417	947	145
0	1386998	948	162
0	1388794	949	183
0	1390096	950	96
0	1391458	951	119
0	1392783	952	124
0	1394434	953	156
0	1395872	954	151
0	1397050	955	95
0	1398744	956	157
0	1400388	957	147
0	1401682	958	123
0	1403148	959	147
0	1404691	960	141
0	1406570	961	168
0	1407939	962	142
0	1409416	963	146
0	1410842	964	145
0	1412359	965	142
0	1413947	966	165
0	1415591	967	157
0	1417327	968	175
0	1418722	969	132
0	1420318	970	168
0	1421768	971	159
0	1423092	972	135
0	1424735	973	156
0	1426088	974	116
0	1427639	975	164
0	1429165	976	129
0	1430891	977	173
0	1432549	978	159
0	1433719	979	115
0	1435339	980	152
0	1436712	981	120
0	1438105	982	146
0	1439695	983	145
0	1441759	984	205
0	1443702	985	190
0	1445278	986	153
0	1446685	987	136
0	1447888	988	120
0	1449037	989	102
0	1450416	990	145
0	1451657	991	112
0	1453323	992	173
0	1454973	993	167
0	1456668	994	164
0	1458526	995	181
0	1460137	996	150
0	1461524	997	122
0	1462941	998	116
0	1464463	999	153
0	1465784	1000	145
0	1467203	1001	134
0	1468781	1002	157
0	1470249	1003	139
0	1471681	1004	129
0	1473114	1005	144
0	1474590	1006	161
0	1476174	1007	149
0	1477419	1008	116
0	1479012	1009	160
0	1480528	1010	144
0	1481670	1011	111
0	1483041	1012	140
0	1484432	1013	130
0	1486102	1014	161
0	1487481	1015	120
0	1489003	1016	129
0	1490333	1017	127
0	1491702	1018	124
0	1493311	1019	154
0	1494796	1020	137
0	1496416	1021	157
0	1498107	1022	170
0	1499409	1023	115
0	1500885	1024	147
0	1502423	1025	173
0	1503733	1026	127
0	1505053	1027	121
0	1506723	1028	171
0	1508346	1029	178
0	1509715	1030	143
0	1511239	1031	157
0	1512624	1032	128
0	1514165	1033	146
0	1515690	1034	148
0	1517176	1035	137
0	1518665	1036	154
0	1520292	1037	162
0	1521779	1038	152
0	1523011	1039	117
0	1524447	1040	132
0	1525944	1041	144
0	1527424	1042	129
0	1528644	1043	89
0	1529813	1044	112
0	1531552	1045	178
0	1533115	1046	156
0	1534488	1047	114
0	1536137	1048	144
0	1537766	1049	160
0	1539398	1050	156
0	1540926	1051	131
0	1542376	1052	141
0	1543874	1053	115
0	1545396	1054	147
0	1546918	1055	147
0	1548369	1056	134
0	1549732	1057	138
0	1551058	1058	127
0	1552733	1059	158
0	1554132	1060	139
0	1555836	1061	179
0	1557296	1062	137
0	1558772	1063	137
0	1560307	1064	158
0	1561772	1065	140
0	1563156	1066	141
0	1564841	1067	162
0	1566447	1068	141
0	1567981	1069	155
0	1569282	1070	111
0	1570614	1071	141
0	1571759	1072	112
0	1573317	1073	147
0	1574879	1074	159
0	1576139	1075	129
0	1578025	1076	213
0	1579540	1077	160
0	1580966	1078	131
0	1582100	1079	115
0	1583635	1080	157
0	1585077	1081	139
0	1586436	1082	122
0	1587820	1083	137
0	1589071	1084	106
0	1590744	1085	166
0	1592183	1086	138
0	1593217	1087	113
0	1594860	1088	174
0	1596373	1089	144
0	1597860	1090	137
0	1599164	1091	113
0	1600362	1092	107
0	1602124	1093	179
0	1603881	1094	180
0	1605236	1095	142
0	1606744	1096	145
0	1607996	1097	101
0	1609598	1098	179
0	1611152	1099	151
0	1612637	1100	155
0	1614176	1101	144
0	1615822	1102	165
0	1617260	1103	143
0	1618714	1104	135
0	1619979	1105	116
0	1621473	1106	143
0	1622856	1107	136
0	1624546	1108	169
0	1626020	1109	127
0	1627804	1110	196
0	1629318	1111	151
0	1630903	1112	150
0	1632286	1113	130
0	1633881	1114	146
0	1635440	1115	142
0	1636853	1116	122
0	1638442	1117	152
0	1640201	1118	190
0	1641683	1119	145
0	1643288	1120	155
0	1644602	1121	121
0	1646014	1122	129
0	1647127	1123	100
0	1648352	1124	112
0	1649585	1125	112
0	1651290	1126	148
0	1652562	1127	113
0	1653910	1128	133
0	1655405	1129	158
0	1657094	1130	167
0	1658716	1131	171
0	1660157	1132	148
0	1661739	1133	171
0	1663352	1134	152
0	1664526	1135	131
0	1666209	1136	184
0	1667828	1137	158
0	1669333	1138	144
0	1670924	1139	160
0	1672518	1140	166
0	1673556	1141	111
0	1674827	1142	130
0	1676230	1143	130
0	1677929	1144	160
0	1679322	1145	122
0	1681077	1146	166
0	1682571	1147	159
0	1683903	1148	137
0	1685784	1149	200
0	1687129	1150	141
0	1688666	1151	126
0	1689739	1152	104
0	1691261	1153	155
0	1692506	1154	124
0	1693946	1155	133
0	1695436	1156	139
0	1697040	1157	145
0	1698664	1158	173
0	1700119	1159	152
0	1701612	1160	153
0	1703220	1161	147
0	1704671	1162	144
0	1705776	1163	116
0	1707158	1164	129
0	1708666	1165	159
0	1710095	1166	124
0	1711992	1167	188
0	1713778	1168	153
0	1715341	1169	152
0	1717050	1170	171
0	1718253	1171	110
0	1719897	1172	149
0	1721405	1173	145
0	1722781	1174	123
0	1724294	1175	142
0	1725996	1176	167
0	1727704	1177	149
0	1729313	1178	156
0	1730914	1179	144
0	1732617	1180	165
0	1733809	1181	97
0	1735047	1182	123
0	1736223	1183	117
0	1737741	1184	151
0	1739049	1185	129
0	1740754	1186	182
0	1742171	1187	146
0	1743790	1188	152
0	1745231	1189	140
0	1746549	1190	116
0	1747972	1191	142
0	1749373	1192	140
0	1750708	1193	118
0	1752475	1194	188
0	1753942	1195	136
0	1755170	1196	101
0	1756650	1197	163
0	1758200	1198	149
0	1759810	1199	165
0	1761245	1200	135
0	1762886	1201	188
0	1764233	1202	138
0	1765842	1203	140
0	1766930	1204	101
0	1768259	1205	128
0	1769435	1206	113
0	1771247	1207	151
0	1772853	1208	145
0	1774761	1209	187
0	1776475	1210	166
0	1778088	1211	150
0	1779703	1212	158
0	1781239	1213	157
0	1782757	1214	163
0	1784373	1215	155
0	1785860	1216	136
0	1787539	1217	152
0	1788924	1218	122
0	1790261	1219	130
0	1792152	1220	179
0	1793412	1221	111
0	1795156	1222	167
0	1796685	1223	124
0	1798587	1224	211
0	1800394	1225	170
0	1801806	1226	129
0	1803117	1227	130
0	1804590	1228	136
0	1806024	1229	143
0	1807502	1230	144
0	1808909	1231	142
0	1810739	1232	175
0	1812241	1233	149
0	1813713	1234	145
0	1815125	1235	129
0	1816452	1236	122
0	1817827	1237	132
0	1819318	1238	148
0	1820719	1239	146
0	1822263	1240	138
0	1823886	1241	166
0	1825453	1242	150
0	1826717	1243	109
0	1827955	1244	123
0	1829729	1245	163
0	1831124	1246	144
0	1832699	1247	156
0	1833969	1248	121
0	1835366	1249	154
0	1836290	1250	90
0	1837939	1251	170
0	1839455	1252	145
0	1840928	1253	150
0	1842169	1254	118
0	1843471	1255	135
0	1845174	1256	178
0	1846364	1257	109
0	1847984	1258	147
0	1849438	1259	131
0	1850695	1260	111
0	1852264	1261	144
0	1853507	1262	102
0	1854530	1263	106
0	1856001	1264	136
0	1857398	1265	136
0	1858877	1266	140
0	1860273	1267	119
0	1861843	1268	157
0	1863557	1269	175
0	1865230	1270	159
0	1866793	1271	150
0	1868631	1272	187
0	1870071	1273	149
0	1871572	1274	168
0	1872987	1275	134
0	1874287	1276	137
0	1875918	1277	142
0	1877415	1278	142
0	1878645	1279	111
0	1879989	1280	132
0	1881296	1281	108
0	1882780	1282	145
0	1884213	1283	140
0	1885605	1284	133
0	1887008	1285	132
0	1888505	1286	138
0	1890325	1287	177
0	1891954	1288	156
0	1893335	1289	120
0	1895048	1290	167
0	1896252	1291	125
0	1897497	1292	116
0	1899262	1293	192
0	1901036	1294	187
0	1902483	1295	166
0	1903894	1296	142
0	1905377	1297	140
0	1906761	1298	139
0	1908419	1299	149
0	1909747	1300	132
0	1910783	1301	91
0	1912050	1302	114
0	1913546	1303	129
0	1914927	1304	136
0	1916146	1305	106
0	1917622	1306	129
0	1918953	1307	128
0	1920221	1308	115
0	1921890	1309	156
0	1923375	1310	159
0	1924756	1311	148
0	1926450	1312	165
0	1928115	1313	190
0	1929685	1314	149
0	1930905	1315	109
0	1932279	1316	129
0	1933686	1317	126
0	1934989	1318	122
0	1936736	1319	182
0	1937760	1320	92
0	1939019	1321	124
0	1940331	1322	131
0	1941743	1323	149
0	1943072	1324	140
0	1944520	1325	131
0	1945889	1326	138
0	1947473	1327	137
0	1948975	1328	131
0	1950571	1329	141
0	1952178	1330	157
0	1953633	1331	126
0	1955058	1332	128
0	1956411	1333	132
0	1957773	1334	147
0	1959612	1335	188
0	1960999	1336	124
0	1962626	1337	158
0	1964290	1338	153
0	1966005	1339	178
0	1967486	1340	167
0	1968807	1341	116
0	1970283	1342	161
0	1971603	1343	123
0	1972757	1344	105
0	1974329	1345	143
0	1975602	1346	122
0	1977017	1347	132
0	1978318	1348	118
0	1980065	1349	166
0	1981446	1350	131
0	1982879	1351	144
0	1984339	1352	129
0	1985797	1353	137
0	1987008	1354	102
0	1988294	1355	121
0	1989732	1356	139
0	1991142	1357	139
0	1992499	1358	124
0	1993915	1359	149
0	1995163	1360	120
0	1996473	1361	135
0	1997835	1362	131
0	1999342	1363	146
0	2000734	1364	125
0	2002471	1365	150
0	2003878	1366	134
0	2005349	1367	152
0	2007042	1368	152
0	2008547	1369	144
0	2009860	1370	119
0	2011152	1371	133
0	2012557	1372	130
0	2013743	1373	127
0	2015353	1374	157
0	2016819	1375	143
0	2018303	1376	133
0	2020088	1377	190
0	2021482	1378	137
0	2023224	1379	187
0	2024772	1380	166
0	2026519	1381	168
0	2028131	1382	161
0	2029631	1383	133
0	2030788	1384	98
0	2032631	1385	176
0	2033891	1386	129
0	2035344	1387	130
0	2036816	1388	139
0	2038652	1389	189
0	2040029	1390	111
0	2041605	1391	137
0	2042962	1392	116
0	2044411	1393	148
0	2045653	1394	119
0	2046850	1395	104
0	2048235	1396	140
0	2049622	1397	126
0	2051030	1398	141
0	2052508	1399	139
0	2053647	1400	105
0	2054829	1401	115
0	2056123	1402	109
0	2057704	1403	154
0	2059683	1404	212
0	2061270	1405	178
0	2062885	1406	136
0	2064249	1407	125
0	2065831	1408	147
0	2067380	1409	126
0	2068850	1410	162
0	2070306	1411	143
0	2071841	1412	134
0	2073254	1413	134
0	2074671	1414	142
0	2076194	1415	148
0	2077406	1416	107
0	2078703	1417	122
0	2080062	1418	140
0	2081524	1419	133
0	2082906	1420	136
0	2084436	1421	145
0	2085852	1422	145
0	2087375	1423	144
0	2088427	1424	85
0	2089844	1425	142
0	2091222	1426	129
0	2092846	1427	165
0	2093983	1428	100
0	2095371	1429	113
0	2096798	1430	131
0	2098192	1431	121
0	2099740	1432	167
0	2100953	1433	104
0	2102310	1434	142
0	2103812	1435	159
0	2105144	1436	131
0	2106406	1437	113
0	2107638	1438	117
0	2109161	1439	140
0	2110359	1440	116
0	2111920	1441	136
0	2113379	1442	142
0	2114646	1443	112
0	2116094	1444	139
0	2117777	1445	152
0	2119069	1446	127
0	2120766	1447	164
0	2122162	1448	107
0	2123601	1449	146
0	2125211	1450	172
0	2126973	1451	183
0	2128176	1452	122
0	2129254	1453	111
0	2130952	1454	163
0	2132396	1455	133
0	2133793	1456	136
0	2135071	1457	135
0	2136764	1458	184
0	2138205	1459	116
0	2139607	1460	142
0	2141179	1461	147
0	2142851	1462	155
0	2144216	1463	132
0	2145509	1464	120
0	2146866	1465	136
0	2148323	1466	146
0	2149848	1467	158
0	2151255	1468	122
0	2152687	1469	137
0	2154147	1470	132
0	2155960	1471	190
0	2157605	1472	150
0	2158941	1473	123
0	2160286	1474	124
0	2161779	1475	142
0	2163207	1476	133
0	2164861	1477	143
0	2166274	1478	124
0	2167754	1479	157
0	2169214	1480	144
0	2171037	1481	174
0	2172780	1482	168
0	2174268	1483	167
0	2175725	1484	136
0	2176795	1485	103
0	2178243	1486	149
0	2179513	1487	129
0	2180949	1488	129
0	2182475	1489	149
0	2184011	1490	150
0	2185601	1491	161
0	2187257	1492	167
0	2188857	1493	157
0	2189980	1494	96
0	2191444	1495	113
0	2192892	1496	149
0	2194267	1497	132
0	2195673	1498	127
0	2196846	1499	106
0	2198625	1500	173
0	2200099	1501	155
0	2201510	1502	150
0	2203326	1503	185
0	2204915	1504	162
0	2206235	1505	139
0	2207482	1506	114
0	2209203	1507	162
0	2210764	1508	150
0	2212243	1509	154
0	2213566	1510	121
0	2215162	1511	155
0	2216493	1512	138
0	2218111	1513	133
0	2219272	1514	100
0	2220563	1515	118
0	2221967	1516	129
0	2223335	1517	113
0	2224754	1518	138
0	2226170	1519	131
0	2227709	1520	151
0	2228946	1521	120
0	2230470	1522	151
0	2231743	1523	126
0	2232985	1524	119
0	2234329	1525	133
0	2235814	1526	144
0	2237229	1527	138
0	2238802	1528	160
0	2239837	1529	100
0	2241327	1530	150
0	2242557	1531	117
0	2244094	1532	140
0	2245334	1533	93
0	2246618	1534	129
0	2248061	1535	130
0	2249751	1536	167
0	2251466	1537	170
0	2252719	1538	124
0	2254348	1539	152
0	2255829	1540	155
0	2257240	1541	138
0	2258592	1542	129
0	2259850	1543	111
0	2261472	1544	155
0	2263130	1545	161
0	2264659	1546	142
0	2266209	1547	151
0	2267981	1548	187
0	2269161	1549	127
0	2271021	1550	180
0	2272511	1551	153
0	2274011	1552	143
0	2275359	1553	117
0	2276683	1554	113
0	2278115	1555	127
0	2279738	1556	150
0	2281217	1557	140
0	2282852	1558	158
0	2284209	1559	136
0	2285789	1560	160
0	2287375	1561	143
0	2288934	1562	142
0	2290056	1563	105
0	2291509	1564	146
0	2292976	1565	154
0	2294327	1566	146
0	2295818	1567	170
0	2297075	1568	126
0	2298297	1569	107
0	2299501	1570	110
0	2300888	1571	156
0	2302452	1572	149
0	2304148	1573	171
0	2305514	1574	121
0	2307368	1575	197
0	2308634	1576	117
0	2310187	1577	158
0	2311696	1578	148
0	2313223	1579	150
0	2314436	1580	111
0	2316052	1581	157
0	2317512	1582	131
0	2319147	1583	144
0	2320462	1584	122
0	2322106	1585	155
0	2323674	1586	141
0	2325247	1587	146
0	2326495	1588	125
0	2327935	1589	143
0	2329369	1590	134
0	2330699	1591	133
0	2332656	1592	202
0	2334115	1593	130
0	2335455	1594	135
0	2336789	1595	127
0	2338191	1596	127
0	2339692	1597	138
0	2340915	1598	90
0	2342328	1599	136
0	2343906	1600	164
0	2345322	1601	129
0	2346310	1602	93
0	2347602	1603	127
0	2349195	1604	168
0	2350690	1605	132
0	2352257	1606	138
0	2353495	1607	107
0	2354523	1608	89
0	2356313	1609	179
0	2357757	1610	132
0	2358975	1611	111
0	2360340	1612	124
0	2361866	1613	153
0	2363293	1614	128