version 3
run SimulationTime-331-20240108-13:23:18-2296
attr configname SimulationTime
attr datetime 20240108-13:23:18
attr datetimef 20240108-132318
attr experiment SimulationTime
attr inifile omnetpp.ini
attr iterationvars ""
attr iterationvarsd ""
attr iterationvarsf ""
attr measurement ""
attr network System
attr processid 2296
attr repetition 331
attr replication #331
attr resultdir results
attr runnumber 331
attr seedset 331
config **.cpu.rate 1000
config **.hd.rateProcessing 250
config **.webServer.web_server_rate 100
config **.p1 0.35
config **.p2 0.40
config network System
config num-rngs 4
config **.cpu.rng-0 0
config **.cpu.rng-1 1
config **.hd.rng-0 2
config **.webServer.rng-0 3
config repeat 500
config seed-set 331
config sim-time-limit 10000s
config **.client.numClients 40

vector 0 System.server.cpu requestCounterStat:vector ETV
attr recordingmode vector
attr source requestCounter
vector 1 System.server.hd utilizationHdStat:vector ETV
attr recordingmode vector
attr source utilizationHd
vector 2 System.server.cpu utilizationCpuStat:vector ETV
attr recordingmode vector
attr source utilizationCpu
vector 3 System.webServer utilizationWsStat:vector ETV
attr recordingmode vector
attr source utilizationWs
0	1761	1	192
0	2940	2	106
0	4095	3	114
0	5820	4	176
0	7518	5	171
0	8609	6	102
0	10085	7	143
0	11548	8	140
0	13208	9	153
0	14981	10	165
0	16396	11	120
0	17791	12	138
0	18989	13	101
0	20823	14	185
0	22111	15	133
0	23130	16	102
0	24514	17	125
0	25972	18	151
0	27782	19	177
0	29123	20	139
0	30822	21	162
0	32172	22	147
0	33597	23	138
0	35285	24	149
0	36954	25	150
0	38668	26	181
0	39930	27	115
0	41359	28	140
0	42795	29	127
0	43938	30	109
0	45289	31	130
0	46980	32	160
0	48462	33	133
0	50071	34	186
0	51852	35	176
0	53727	36	190
0	55089	37	133
0	56633	38	151
0	58075	39	151
0	59470	40	143
0	61129	41	146
0	62743	42	161
0	64341	43	151
0	65500	44	120
0	66771	45	122
0	68291	46	159
0	69791	47	129
0	71259	48	121
0	72983	49	173
0	74687	50	190
0	76331	51	171
0	77713	52	121
0	79097	53	139
0	80423	54	123
0	81601	55	91
0	82932	56	114
0	84611	57	170
0	86361	58	163
0	87971	59	143
0	89237	60	122
0	90837	61	147
0	92642	62	182
0	93827	63	124
0	95200	64	120
0	97149	65	196
0	98651	66	133
0	100233	67	153
0	101899	68	159
0	103106	69	106
0	104629	70	137
0	106117	71	153
0	108002	72	184
0	109654	73	145
0	111189	74	144
0	112623	75	127
0	114070	76	146
0	115823	77	174
0	116972	78	108
0	118486	79	143
0	119922	80	126
0	121264	81	127
0	122862	82	153
0	124208	83	123
0	125272	84	93
0	126414	85	103
0	128028	86	163
0	129581	87	140
0	130788	88	110
0	132533	89	156
0	133770	90	101
0	135378	91	159
0	136835	92	136
0	138179	93	135
0	139829	94	133
0	141041	95	109
0	142648	96	160
0	144292	97	155
0	145652	98	137
0	147257	99	152
0	148632	100	141
0	149649	101	94
0	151118	102	132
0	152711	103	156
0	154215	104	129
0	155825	105	167
0	157406	106	150
0	158638	107	117
0	160180	108	151
0	161749	109	150
0	162892	110	103
0	164389	111	132
0	166018	112	152
0	167464	113	147
0	169131	114	164
0	170364	115	104
0	171445	116	98
0	173176	117	168
0	174710	118	149
0	176181	119	152
0	177534	120	135
0	179093	121	160
0	180497	122	129
0	181670	123	104
0	183039	124	136
0	184163	125	107
0	185863	126	155
0	187180	127	138
0	188487	128	116
0	189938	129	126
0	191299	130	113
0	192878	131	156
0	194523	132	150
0	196030	133	136
0	197523	134	152
0	198978	135	140
0	200431	136	156
0	202238	137	164
0	203843	138	164
0	205112	139	122
0	206481	140	115
0	207802	141	126
0	209510	142	161
0	210841	143	112
0	212190	144	126
0	213522	145	119
0	215208	146	167
0	216794	147	145
0	218352	148	151
0	219830	149	129
0	221125	150	129
0	222423	151	133
0	223946	152	142
0	225949	153	182
0	227278	154	132
0	229143	155	180
0	230430	156	122
0	232038	157	151
0	233718	158	155
0	235119	159	128
0	236464	160	127
0	238089	161	148
0	239290	162	112
0	240588	163	119
0	242041	164	142
0	243833	165	187
0	245174	166	126
0	246427	167	134
0	247922	168	114
0	249291	169	136
0	250901	170	144
0	252632	171	160
0	254064	172	135
0	255498	173	131
0	256873	174	128
0	258581	175	165
0	260222	176	160
0	261597	177	140
0	262883	178	109
0	264187	179	113
0	265788	180	171
0	267248	181	131
0	268781	182	154
0	270367	183	135
0	271841	184	131
0	273316	185	142
0	274688	186	161
0	276286	187	141
0	278029	188	172
0	279103	189	113
0	280679	190	162
0	282204	191	142
0	283453	192	104
0	285042	193	158
0	286498	194	141
0	287859	195	136
0	289416	196	180
0	291060	197	137
0	292509	198	136
0	293878	199	136
0	295155	200	115
0	296558	201	146
0	298125	202	156
0	299903	203	185
0	301398	204	140
0	303177	205	190
0	304536	206	120
0	306168	207	157
0	307833	208	174
0	309221	209	131
0	310609	210	144
0	311870	211	124
0	313264	212	139
0	314847	213	150
0	316608	214	158
0	318076	215	143
0	319613	216	142
0	320712	217	112
0	322495	218	160
0	324024	219	158
0	325379	220	121
0	326768	221	120
0	328309	222	140
0	329474	223	124
0	330825	224	126
0	332516	225	162
0	333802	226	119
0	334940	227	103
0	336167	228	122
0	337596	229	144
0	338937	230	129
0	340324	231	144
0	341770	232	131
0	343184	233	137
0	344575	234	128
0	346413	235	179
0	347511	236	115
0	348810	237	118
0	350147	238	128
0	351701	239	139
0	353024	240	129
0	354551	241	146
0	356127	242	163
0	357486	243	134
0	358993	244	130
0	360454	245	146
0	362283	246	184
0	363803	247	153
0	365461	248	169
0	367096	249	164
0	368323	250	119
0	369467	251	119
0	371013	252	159
0	372440	253	134
0	374082	254	151
0	375377	255	110
0	376844	256	130
0	378209	257	124
0	379409	258	107
0	380845	259	127
0	382366	260	139
0	383826	261	141
0	385579	262	168
0	387132	263	132
0	388943	264	170
0	390572	265	152
0	392243	266	160
0	393613	267	127
0	395114	268	146
0	396662	269	151
0	398230	270	130
0	399935	271	164
0	401155	272	101
0	402546	273	130
0	403836	274	139
0	405197	275	128
0	406676	276	130
0	408160	277	153
0	409772	278	153
0	411155	279	140
0	412262	280	111
0	413599	281	142
0	415139	282	147
0	416747	283	157
0	417976	284	120
0	419264	285	125
0	420673	286	138
0	421970	287	110
0	423526	288	145
0	424936	289	141
0	426158	290	108
0	427660	291	155
0	429003	292	118
0	430147	293	87
0	431427	294	131
0	432898	295	138
0	434158	296	121
0	435476	297	135
0	436689	298	104
0	437939	299	113
0	439615	300	162
0	441027	301	133
0	442652	302	160
0	444086	303	139
0	445728	304	157
0	447255	305	148
0	448793	306	151
0	450105	307	129
0	451321	308	107
0	453028	309	134
0	454573	310	135
0	456184	311	152
0	457577	312	124
0	459106	313	144
0	460658	314	161
0	462072	315	121
0	463542	316	147
0	465210	317	159
0	466638	318	133
0	468266	319	173
0	469702	320	130
0	470753	321	88
0	472079	322	115
0	473716	323	168
0	475038	324	121
0	476410	325	123
0	477758	326	125
0	479192	327	135
0	480827	328	154
0	482362	329	154
0	483652	330	146
0	485090	331	135
0	486694	332	149
0	487970	333	133
0	489537	334	158
0	491022	335	136
0	492330	336	131
0	493945	337	178
0	495749	338	207
0	497480	339	186
0	498845	340	123
0	499947	341	95
0	501513	342	161
0	502466	343	86
0	504029	344	146
0	505193	345	113
0	506547	346	143
0	507906	347	132
0	509355	348	130
0	510665	349	123
0	512471	350	168
0	514358	351	176
0	515955	352	152
0	517188	353	100
0	518632	354	149
0	519678	355	83
0	521197	356	142
0	522891	357	163
0	524438	358	156
0	525828	359	113
0	527120	360	132
0	528648	361	141
0	530131	362	150
0	531427	363	127
0	532788	364	134
0	534302	365	143
0	535725	366	134
0	536912	367	124
0	538633	368	194
0	539948	369	122
0	541418	370	156
0	542924	371	151
0	544324	372	133
0	545902	373	173
0	547340	374	133
0	549029	375	168
0	550762	376	174
0	552387	377	146
0	553881	378	159
0	555419	379	171
0	556945	380	126
0	558397	381	123
0	559794	382	146
0	561451	383	154
0	562907	384	145
0	564220	385	120
0	565701	386	148
0	567031	387	125
0	568275	388	123
0	569529	389	99
0	571031	390	138
0	572509	391	147
0	573912	392	144
0	575431	393	166
0	576498	394	84
0	577944	395	147
0	579573	396	144
0	580903	397	127
0	582302	398	140
0	583872	399	147
0	585161	400	117
0	586766	401	158
0	588257	402	146
0	590098	403	178
0	591805	404	170
0	593422	405	148
0	594750	406	127
0	596331	407	156
0	597831	408	147
0	599313	409	159
0	600815	410	130
0	602619	411	175
0	604562	412	194
0	606081	413	150
0	607815	414	181
0	609484	415	164
0	610851	416	142
0	612320	417	142
0	613793	418	138
0	615046	419	116
0	616426	420	124
0	618124	421	179
0	619402	422	129
0	620963	423	142
0	622477	424	135
0	623908	425	142
0	625820	426	185
0	627481	427	162
0	628948	428	136
0	630541	429	152
0	631930	430	125
0	633743	431	180
0	635513	432	195
0	636749	433	119
0	638000	434	114
0	639633	435	152
0	641030	436	138
0	642386	437	119
0	643982	438	161
0	645322	439	117
0	646763	440	143
0	647957	441	111
0	649528	442	154
0	651148	443	161
0	652605	444	128
0	653932	445	136
0	655220	446	131
0	656993	447	172
0	658305	448	113
0	659880	449	158
0	661319	450	129
0	663062	451	172
0	664547	452	152
0	665981	453	145
0	667438	454	130
0	669041	455	146
0	670565	456	163
0	671975	457	123
0	673486	458	142
0	674780	459	121
0	676611	460	187
0	678288	461	164
0	679660	462	139
0	681020	463	119
0	682623	464	158
0	684374	465	178
0	685973	466	142
0	687479	467	155
0	689009	468	163
0	690255	469	129
0	691601	470	112
0	693186	471	144
0	694844	472	161
0	696340	473	149
0	698009	474	150
0	699158	475	112
0	700670	476	139
0	702328	477	165
0	703891	478	138
0	705293	479	139
0	706551	480	120
0	708046	481	140
0	709335	482	124
0	710812	483	140
0	712209	484	140
0	713470	485	130
0	715144	486	161
0	716166	487	83
0	717528	488	139
0	718880	489	113
0	720062	490	94
0	721365	491	122
0	722743	492	139
0	724153	493	147
0	725384	494	108
0	726458	495	97
0	728029	496	182
0	729450	497	138
0	731172	498	181
0	733047	499	186
0	734389	500	126
0	735939	501	147
0	737679	502	153
0	739094	503	122
0	740811	504	170
0	742396	505	142
0	744039	506	158
0	745508	507	144
0	746839	508	132
0	748353	509	149
0	750218	510	167
0	751647	511	136
0	753070	512	132
0	754568	513	155
0	756317	514	176
0	757667	515	125
0	759071	516	137
0	760669	517	155
0	762626	518	180
0	764084	519	135
0	765259	520	103
0	766859	521	163
0	768382	522	144
0	769492	523	109
0	770961	524	136
0	772346	525	136
0	773712	526	139
0	775165	527	160
0	776589	528	137
0	778152	529	158
0	779592	530	142
0	781274	531	171
0	782512	532	117
0	784301	533	176
0	785654	534	128
0	786967	535	126
0	788624	536	172
0	789911	537	124
0	791695	538	179
0	792904	539	132
0	794591	540	151
0	796128	541	146
0	797835	542	166
0	799095	543	109
0	800683	544	167
0	802028	545	124
0	803662	546	159
0	804899	547	128
0	806431	548	159
0	807748	549	118
0	809054	550	128
0	810564	551	155
0	811961	552	134
0	813784	553	170
0	815016	554	109
0	816036	555	85
0	817462	556	151
0	819057	557	150
0	820640	558	142
0	822039	559	138
0	823683	560	152
0	825123	561	137
0	826315	562	107
0	827814	563	148
0	829270	564	127
0	830890	565	161
0	832389	566	150
0	833967	567	157
0	835359	568	125
0	836837	569	139
0	838326	570	139
0	840101	571	190
0	841419	572	119
0	842889	573	127
0	844370	574	136
0	845701	575	142
0	847113	576	119
0	848229	577	119
0	849607	578	127
0	851113	579	143
0	852599	580	138
0	854119	581	141
0	855716	582	152
0	857060	583	141
0	858616	584	165
0	860108	585	133
0	861715	586	138
0	863189	587	127
0	864821	588	187
0	866354	589	158
0	867838	590	156
0	869323	591	132
0	870529	592	129
0	872256	593	154
0	873863	594	154
0	875226	595	128
0	876540	596	115
0	877908	597	109
0	879216	598	119
0	880446	599	125
0	881832	600	126
0	883097	601	116
0	884905	602	175
0	886575	603	169
0	888271	604	169
0	889926	605	154
0	891378	606	165
0	892826	607	139
0	894142	608	137
0	895665	609	152
0	897151	610	154
0	898753	611	153
0	900152	612	136
0	901660	613	149
0	903003	614	120
0	904612	615	190
0	905851	616	142
0	907256	617	122
0	908666	618	145
0	910317	619	154
0	911637	620	124
0	912892	621	126
0	914353	622	116
0	915759	623	137
0	917411	624	179
0	919175	625	165
0	920641	626	133
0	922060	627	136
0	923838	628	201
0	925293	629	132
0	926746	630	151
0	928252	631	167
0	929818	632	159
0	931809	633	194
0	933193	634	127
0	934837	635	165
0	935955	636	105
0	937222	637	126
0	938509	638	126
0	939870	639	126
0	941390	640	146
0	942898	641	161
0	944395	642	152
0	945782	643	128
0	947209	644	138
0	948727	645	145
0	950380	646	168
0	951705	647	104
0	953368	648	178
0	955017	649	156
0	956451	650	126
0	958277	651	161
0	959894	652	150
0	961634	653	161
0	963127	654	138
0	964535	655	139
0	965895	656	109
0	967680	657	180
0	969044	658	121
0	970789	659	176
0	972333	660	148
0	974028	661	174
0	975540	662	169
0	977081	663	142
0	978464	664	124
0	980234	665	159
0	981461	666	108
0	982897	667	131
0	984658	668	154
0	986090	669	131
0	987365	670	129
0	988648	671	118
0	990312	672	159
0	991845	673	154
0	993275	674	141
0	994876	675	150
0	996377	676	136
0	997969	677	163
0	999202	678	114
0	1000574	679	131
0	1001909	680	129
0	1003521	681	143
0	1005098	682	136
0	1006760	683	171
0	1008086	684	127
0	1009472	685	139
0	1011096	686	181
0	1012579	687	136
0	1014196	688	152
0	1015855	689	168
0	1017251	690	148
0	1018505	691	123
0	1019862	692	132
0	1021709	693	178
0	1023016	694	134
0	1024389	695	124
0	1025883	696	147
0	1027315	697	145
0	1029157	698	195
0	1030622	699	120
0	1032329	700	169
0	1033713	701	111
0	1035177	702	123
0	1036716	703	158
0	1038187	704	122
0	1039550	705	122
0	1041022	706	141
0	1042509	707	150
0	1044022	708	150
0	1045607	709	160
0	1047121	710	148
0	1048440	711	120
0	1050196	712	189
0	1051975	713	188
0	1053560	714	160
0	1055341	715	166
0	1056664	716	124
0	1057974	717	135
0	1059500	718	131
0	1061009	719	140
0	1062690	720	169
0	1064103	721	146
0	1065771	722	171
0	1067404	723	146
0	1068792	724	133
0	1070434	725	147
0	1071911	726	116
0	1073262	727	98
0	1074793	728	164
0	1076374	729	160
0	1077857	730	147
0	1079240	731	126
0	1080876	732	147
0	1082276	733	125
0	1083719	734	144
0	1085006	735	128
0	1086610	736	151
0	1088047	737	140
0	1089526	738	126
0	1091217	739	164
0	1092555	740	116
0	1094074	741	170
0	1095635	742	168
0	1097354	743	168
0	1098696	744	135
0	1099961	745	118
0	1101574	746	174
0	1103089	747	148
0	1104609	748	141
0	1106261	749	153
0	1107642	750	139
0	1109165	751	136
0	1110395	752	115
0	1111882	753	146
0	1113900	754	205
0	1115659	755	188
0	1116870	756	116
0	1118521	757	166
0	1120137	758	165
0	1121650	759	144
0	1123487	760	179
0	1125250	761	152
0	1126731	762	134
0	1128302	763	154
0	1129903	764	134
0	1131288	765	134
0	1132465	766	122
0	1133919	767	157
0	1135096	768	120
0	1136461	769	130
0	1137734	770	117
0	1139099	771	124
0	1140560	772	144
0	1141956	773	125
0	1143328	774	145
0	1144954	775	165
0	1146768	776	177
0	1148150	777	127
0	1149622	778	139
0	1151181	779	156
0	1152980	780	203
0	1154033	781	90
0	1155287	782	119
0	1156710	783	152
0	1158252	784	129
0	1159428	785	107
0	1160968	786	147
0	1162351	787	140
0	1163811	788	123
0	1165391	789	165
0	1167007	790	152
0	1168383	791	115
0	1170252	792	178
0	1171785	793	142
0	1173222	794	138
0	1174829	795	142
0	1176109	796	129
0	1177670	797	148
0	1179349	798	156
0	1180778	799	138
0	1182425	800	137
0	1183825	801	141
0	1185298	802	136
0	1187082	803	181
0	1188278	804	97
0	1189778	805	145
0	1191395	806	168
0	1192837	807	155
0	1194099	808	115
0	1195538	809	130
0	1196851	810	113
0	1198151	811	123
0	1199884	812	160
0	1201313	813	142
0	1202935	814	151
0	1204547	815	143
0	1205780	816	110
0	1207410	817	177
0	1208596	818	109
0	1209853	819	118
0	1211457	820	148
0	1212848	821	134
0	1214054	822	107
0	1215594	823	151
0	1217134	824	155
0	1218680	825	155
0	1219781	826	100
0	1221414	827	160
0	1222403	828	74
0	1223855	829	133
0	1225446	830	151
0	1226877	831	138
0	1228398	832	144
0	1229882	833	141
0	1231298	834	111
0	1232838	835	151
0	1234243	836	136
0	1235824	837	172
0	1237420	838	157
0	1238918	839	135
0	1240296	840	126
0	1241842	841	139
0	1243053	842	118
0	1244427	843	139
0	1245776	844	112
0	1247258	845	165
0	1248365	846	88
0	1249745	847	117
0	1250964	848	126
0	1252263	849	118
0	1253497	850	114
0	1254823	851	129
0	1256062	852	112
0	1257250	853	103
0	1258267	854	94
0	1259597	855	115
0	1261098	856	158
0	1262559	857	138
0	1264053	858	127
0	1265483	859	147
0	1267218	860	161
0	1268862	861	163
0	1270354	862	127
0	1271819	863	150
0	1273267	864	143
0	1274743	865	137
0	1276249	866	135
0	1277683	867	145
0	1279369	868	149
0	1280961	869	169
0	1282333	870	136
0	1283959	871	163
0	1285451	872	137
0	1286720	873	138
0	1288048	874	119
0	1289656	875	153
0	1291311	876	162
0	1292887	877	161
0	1294254	878	124
0	1295686	879	151
0	1297128	880	142
0	1298720	881	143
0	1300032	882	127
0	1301211	883	106
0	1302702	884	142
0	1304381	885	148
0	1305943	886	165
0	1307480	887	134
0	1309006	888	133
0	1310580	889	151
0	1311841	890	127
0	1313019	891	107
0	1314294	892	122
0	1315715	893	124
0	1317287	894	157
0	1318609	895	127
0	1319927	896	141
0	1321189	897	115
0	1322715	898	149
0	1324423	899	161
0	1325743	900	120
0	1327340	901	154
0	1328659	902	116
0	1329999	903	145
0	1331338	904	128
0	1332726	905	143
0	1334130	906	121
0	1335635	907	146
0	1337286	908	170
0	1338718	909	125
0	1340159	910	129
0	1341376	911	120
0	1343035	912	150
0	1344729	913	161
0	1346193	914	127
0	1347518	915	108
0	1348905	916	142
0	1350274	917	144
0	1351514	918	115
0	1352606	919	91
0	1353882	920	124
0	1355225	921	108
0	1356555	922	125
0	1357872	923	132
0	1359633	924	172
0	1361064	925	146
0	1362428	926	117
0	1363714	927	111
0	1365343	928	146
0	1366821	929	157
0	1368485	930	136
0	1370039	931	147
0	1371698	932	192
0	1373301	933	168
0	1374832	934	138
0	1375982	935	99
0	1377533	936	150
0	1379067	937	141
0	1380588	938	148
0	1382013	939	140
0	1383610	940	147
0	1384896	941	115
0	1386135	942	108
0	1387485	943	135
0	1388857	944	141
0	1390149	945	133
0	1391507	946	139
0	1392784	947	112
0	1394253	948	144
0	1395860	949	138
0	1397589	950	165
0	1398732	951	108
0	1400124	952	137
0	1401716	953	157
0	1403250	954	139
0	1404561	955	130
0	1405805	956	117
0	1407184	957	134
0	1408801	958	178
0	1410368	959	148
0	1411958	960	154
0	1413391	961	138
0	1414955	962	161
0	1416423	963	131
0	1417761	964	135
0	1419302	965	144
0	1420966	966	149
0	1422615	967	174
0	1424048	968	126
0	1425288	969	129
0	1427005	970	163
0	1428397	971	113
0	1429863	972	123
0	1431255	973	129
0	1432495	974	113
0	1433721	975	111
0	1435059	976	127
0	1436260	977	108
0	1437347	978	102
0	1438982	979	154
0	1440790	980	166
0	1442487	981	158
0	1444279	982	193
0	1445928	983	172
0	1447390	984	135
0	1448982	985	145
0	1450692	986	157
0	1452116	987	127
0	1453424	988	115
0	1454657	989	114
0	1456108	990	141
0	1457496	991	137
0	1459047	992	162
0	1460691	993	165
0	1461939	994	109
0	1463531	995	159
0	1464868	996	126
0	1466034	997	133
0	1467614	998	139
0	1468942	999	121
0	1470457	1000	143
0	1471915	1001	129
0	1473566	1002	136
0	1475041	1003	144
0	1476496	1004	142
0	1477822	1005	129
0	1479297	1006	146
0	1480943	1007	173
0	1482528	1008	162
0	1484168	1009	151
0	1485553	1010	135
0	1487014	1011	130
0	1488394	1012	121
0	1489914	1013	147
0	1491408	1014	143
0	1492900	1015	135
0	1494458	1016	157
0	1495502	1017	81
0	1497261	1018	182
0	1499074	1019	194
0	1500690	1020	150
0	1502129	1021	140
0	1503593	1022	141
0	1505216	1023	152
0	1506580	1024	117
0	1507832	1025	117
0	1509312	1026	157
0	1510598	1027	127
0	1512031	1028	128
0	1513851	1029	189
0	1515110	1030	115
0	1516818	1031	153
0	1518831	1032	204
0	1520371	1033	143
0	1521851	1034	137
0	1523242	1035	144
0	1524318	1036	107
0	1525553	1037	110
0	1526989	1038	141
0	1528709	1039	159
0	1530227	1040	136
0	1531916	1041	192
0	1533176	1042	125
0	1534772	1043	145
0	1536005	1044	120
0	1537185	1045	109
0	1538437	1046	125
0	1540051	1047	159
0	1541127	1048	95
0	1542552	1049	140
0	1543990	1050	138
0	1545376	1051	121
0	1546479	1052	94
0	1547868	1053	134
0	1548955	1054	106
0	1550590	1055	172
0	1551927	1056	124
0	1553352	1057	136
0	1554894	1058	141
0	1556182	1059	115
0	1558012	1060	164
0	1559464	1061	131
0	1560812	1062	117
0	1562323	1063	132
0	1563842	1064	148
0	1565382	1065	165
0	1566931	1066	152
0	1568141	1067	109
0	1569621	1068	143
0	1570558	1069	94
0	1572026	1070	140
0	1573565	1071	164
0	1574861	1072	129
0	1576190	1073	118
0	1577514	1074	135
0	1578787	1075	104
0	1580344	1076	152
0	1581595	1077	108
0	1582848	1078	144
0	1584345	1079	144
0	1585738	1080	135
0	1587414	1081	167
0	1588980	1082	155
0	1590664	1083	193
0	1591753	1084	100
0	1593169	1085	127
0	1594604	1086	126
0	1596150	1087	149
0	1597491	1088	120
0	1599161	1089	189
0	1600579	1090	140
0	1602177	1091	179
0	1603823	1092	171
0	1605128	1093	116
0	1606516	1094	123
0	1607926	1095	113
0	1609486	1096	159
0	1610869	1097	124
0	1612176	1098	126
0	1613546	1099	121
0	1614771	1100	117
0	1615910	1101	106
0	1617233	1102	126
0	1618936	1103	156
0	1620451	1104	136
0	1621878	1105	130
0	1622918	1106	93
0	1624516	1107	159
0	1625612	1108	115
0	1626949	1109	114
0	1628347	1110	130
0	1629732	1111	128
0	1630992	1112	121
0	1632354	1113	125
0	1633732	1114	121
0	1635114	1115	117
0	1636505	1116	136
0	1638189	1117	161
0	1639580	1118	120
0	1641104	1119	151
0	1642744	1120	148
0	1644082	1121	145
0	1645382	1122	123
0	1647061	1123	164
0	1648606	1124	130
0	1650047	1125	138
0	1651328	1126	122
0	1652800	1127	151
0	1653837	1128	100
0	1655267	1129	147
0	1656579	1130	114
0	1658256	1131	150
0	1659764	1132	131
0	1661195	1133	140
0	1662701	1134	137
0	1664362	1135	172
0	1665818	1136	137
0	1667669	1137	202
0	1668943	1138	123
0	1670208	1139	120
0	1671796	1140	132
0	1673405	1141	152
0	1674881	1142	157
0	1676314	1143	128
0	1677866	1144	141
0	1679308	1145	135
0	1680637	1146	132
0	1682239	1147	147
0	1683830	1148	146
0	1685587	1149	176
0	1687094	1150	141
0	1688362	1151	113
0	1689822	1152	121
0	1691172	1153	131
0	1692607	1154	138
0	1693714	1155	102
0	1694969	1156	124
0	1695968	1157	94
0	1697272	1158	133
0	1698881	1159	154
0	1700431	1160	144
0	1701936	1161	120
0	1703603	1162	166
0	1705229	1163	157
0	1707057	1164	161
0	1708751	1165	163
0	1710110	1166	122
0	1711523	1167	128
0	1713100	1168	156
0	1714304	1169	109
0	1715806	1170	156
0	1717164	1171	135
0	1718543	1172	142
0	1719929	1173	125
0	1721394	1174	148
0	1722863	1175	128
0	1724518	1176	158
0	1725784	1177	121
0	1727052	1178	135
0	1728334	1179	123
0	1729750	1180	152
0	1731719	1181	206
0	1733451	1182	181
0	1735262	1183	174
0	1736654	1184	137
0	1737889	1185	100
0	1739036	1186	108
0	1740645	1187	156
0	1741842	1188	108
0	1743497	1189	184
0	1745163	1190	174
0	1746596	1191	144
0	1747674	1192	87
0	1749143	1193	144
0	1750301	1194	83
0	1751711	1195	119
0	1753177	1196	135
0	1754611	1197	111
0	1756183	1198	153
0	1757590	1199	130
0	1759277	1200	177
0	1760468	1201	100
0	1761951	1202	140
0	1763209	1203	131
0	1764569	1204	129
0	1766127	1205	151
0	1767568	1206	132
0	1769036	1207	145
0	1770651	1208	178
0	1771944	1209	116
0	1773666	1210	156
0	1775327	1211	174
0	1776577	1212	115
0	1778243	1213	163
0	1779515	1214	117
0	1780536	1215	98
0	1782126	1216	151
0	1783845	1217	194
0	1785304	1218	170
0	1786806	1219	141
0	1788461	1220	165
0	1789811	1221	131
0	1790821	1222	103
0	1792402	1223	142
0	1794164	1224	193
0	1795307	1225	98
0	1796939	1226	151
0	1798275	1227	119
0	1799524	1228	120
0	1801015	1229	154
0	1802260	1230	107
0	1803580	1231	133
0	1805063	1232	138
0	1806327	1233	129
0	1807764	1234	120
0	1809024	1235	105
0	1810722	1236	143
0	1812599	1237	182
0	1814082	1238	144
0	1815472	1239	119
0	1816471	1240	97
0	1818052	1241	168
0	1819469	1242	124
0	1821008	1243	170
0	1822073	1244	98
0	1823434	1245	130
0	1825068	1246	159
0	1826417	1247	140
0	1827845	1248	125
0	1829137	1249	129
0	1830584	1250	155
0	1831995	1251	136
0	1833499	1252	157
0	1834813	1253	111
0	1836382	1254	164
0	1838051	1255	180
0	1839659	1256	151
0	1841104	1257	132
0	1842924	1258	191
0	1844173	1259	118
0	1845757	1260	158
0	1847132	1261	126
0	1848809	1262	172
0	1850035	1263	115
0	1851624	1264	148
0	1852842	1265	109
0	1854321	1266	148
0	1855776	1267	128
0	1857220	1268	137
0	1858771	1269	148
0	1860081	1270	130
0	1861502	1271	124
0	1863032	1272	151
0	1864507	1273	130
0	1865687	1274	111
0	1867291	1275	145
0	1868642	1276	128
0	1869994	1277	125
0	1871453	1278	130
0	1873036	1279	164
0	1874582	1280	144
0	1876290	1281	165
0	1877907	1282	136
0	1879146	1283	120
0	1880709	1284	148
0	1882025	1285	109
0	1883548	1286	170
0	1884943	1287	134
0	1886365	1288	117
0	1887958	1289	162
0	1889297	1290	121
0	1890934	1291	168
0	1892692	1292	165
0	1894366	1293	153
0	1896282	1294	183
0	1898020	1295	185
0	1899566	1296	163
0	1900650	1297	93
0	1902366	1298	169
0	1903947	1299	164
0	1905468	1300	145
0	1906975	1301	132
0	1908399	1302	133
0	1909734	1303	132
0	1911275	1304	158
0	1912647	1305	129
0	1914036	1306	140
0	1915439	1307	146
0	1917011	1308	145
0	1918554	1309	138
0	1919942	1310	114
0	1921602	1311	155
0	1923419	1312	172
0	1924754	1313	142
0	1926406	1314	165
0	1928190	1315	181
0	1929471	1316	124
0	1930812	1317	110
0	1932318	1318	141
0	1933507	1319	90
0	1935108	1320	157
0	1936428	1321	113
0	1937894	1322	149
0	1939282	1323	123
0	1940805	1324	138
0	1941944	1325	114
0	1943049	1326	112
0	1944633	1327	155
0	1945883	1328	109
0	1947318	1329	142
0	1948762	1330	130
0	1949987	1331	128
0	1951362	1332	140
0	1952689	1333	138
0	1954088	1334	128
0	1955807	1335	180
0	1956917	1336	107
0	1958689	1337	181
0	1959972	1338	122
0	1961002	1339	87
0	1962512	1340	146
0	1964121	1341	156
0	1965843	1342	165
0	1967389	1343	137
0	1968808	1344	130
0	1970528	1345	173
0	1972277	1346	162
0	1973643	1347	137
0	1975209	1348	161
0	1976516	1349	122
0	1978164	1350	162
0	1979841	1351	172
0	1981409	1352	159
0	1983081	1353	163
0	1984420	1354	114
0	1986078	1355	161
0	1987638	1356	153
0	1988814	1357	115
0	1990147	1358	128
0	1991138	1359	88
0	1992275	1360	101
0	1993585	1361	123
0	1995084	1362	122
0	1996457	1363	144
0	1997685	1364	103
0	1999150	1365	142
0	2000523	1366	138
0	2002073	1367	149
0	2003633	1368	143
0	2004980	1369	118
0	2006384	1370	138
0	2007887	1371	132
0	2009481	1372	137
0	2010854	1373	124
0	2012211	1374	146
0	2013756	1375	142
0	2015458	1376	163
0	2016793	1377	152
0	2018045	1378	123
0	2019461	1379	125
0	2020851	1380	132
0	2022303	1381	135
0	2023917	1382	173
0	2025723	1383	159
0	2026703	1384	93
0	2028266	1385	144
0	2029636	1386	139
0	2030954	1387	123
0	2032331	1388	110
0	2033683	1389	131
0	2034899	1390	116
0	2036286	1391	114
0	2037883	1392	140
0	2039195	1393	133
0	2040825	1394	153
0	2042105	1395	119
0	2043288	1396	110
0	2044737	1397	128
0	2046050	1398	118
0	2047927	1399	186
0	2049368	1400	137
0	2050704	1401	129
0	2052036	1402	101
0	2053384	1403	147
0	2055072	1404	161
0	2056602	1405	153
0	2057851	1406	110
0	2059372	1407	156
0	2060560	1408	113
0	2062229	1409	154
0	2063531	1410	126
0	2065175	1411	155
0	2066749	1412	153
0	2068074	1413	130
0	2069641	1414	166
0	2070846	1415	114
0	2071951	1416	100
0	2073487	1417	139
0	2074870	1418	134
0	2076090	1419	103
0	2077485	1420	135
0	2078836	1421	130
0	2080290	1422	143
0	2081372	1423	97
0	2082799	1424	144
0	2084110	1425	118
0	2085475	1426	124
0	2086935	1427	135
0	2088668	1428	162
0	2090331	1429	188
0	2091882	1430	167
0	2093352	1431	159
0	2094963	1432	172
0	2096603	1433	163
0	2097990	1434	114
0	2099106	1435	101
0	2100805	1436	166
0	2102447	1437	155
0	2103718	1438	132
0	2105292	1439	153
0	2106794	1440	150
0	2108270	1441	129
0	2109973	1442	146
0	2111590	1443	168
0	2112838	1444	109
0	2114587	1445	184
0	2115965	1446	119
0	2117157	1447	101
0	2118393	1448	97
0	2120203	1449	191
0	2121263	1450	92
0	2122755	1451	145
0	2124293	1452	133
0	2125786	1453	144
0	2127279	1454	162
0	2128493	1455	111
0	2129968	1456	130
0	2131231	1457	126
0	2132934	1458	178
0	2134459	1459	144
0	2136001	1460	150
0	2137436	1461	150
0	2138942	1462	143
0	2140088	1463	107
0	2141655	1464	152
0	2142722	1465	104
0	2144319	1466	152
0	2146157	1467	187
0	2147522	1468	116
0	2149113	1469	146
0	2150446	1470	129
0	2151439	1471	66
0	2152760	1472	116
0	2154213	1473	140
0	2155771	1474	143
0	2157314	1475	146
0	2158519	1476	120
0	2160174	1477	152
0	2161442	1478	119
0	2162893	1479	126
0	2164471	1480	162
0	2166098	1481	140
0	2168041	1482	164
0	2169390	1483	104
0	2170902	1484	163
0	2172120	1485	117
0	2173648	1486	165
0	2175274	1487	155
0	2176436	1488	103
0	2177532	1489	115
0	2178583	1490	91
0	2180161	1491	155
0	2182009	1492	191
0	2183637	1493	149
0	2185358	1494	160
0	2186800	1495	127
0	2188608	1496	175
0	2189977	1497	140
0	2191387	1498	135
0	2192803	1499	143
0	2194343	1500	134
0	2195829	1501	125
0	2197555	1502	167
0	2198741	1503	113
0	2200187	1504	159
0	2201497	1505	135
0	2203586	1506	226
0	2204852	1507	105
0	2206226	1508	135
0	2207822	1509	151
0	2209159	1510	129
0	2210650	1511	142
0	2212024	1512	123
0	2213134	1513	95
0	2214725	1514	162
0	2215979	1515	109
0	2217331	1516	119
0	2218764	1517	132
0	2220010	1518	121
0	2221437	1519	122
0	2222877	1520	130
0	2224299	1521	149
0	2225683	1522	121
0	2227646	1523	192
0	2229033	1524	128
0	2230453	1525	145
0	2231936	1526	132
0	2233428	1527	125
0	2234789	1528	138
0	2236259	1529	145
0	2237794	1530	143
0	2239238	1531	145
0	2240769	1532	144
0	2242507	1533	169
0	2243921	1534	129
0	2245231	1535	135
0	2246494	1536	130
0	2247627	1537	112
0	2248993	1538	131
0	2250354	1539	128
0	2251827	1540	153
0	2253297	1541	143
0	2254534	1542	138
0	2255788	1543	119
0	2257036	1544	105
0	2258732	1545	173
0	2260190	1546	137
0	2261757	1547	154
0	2263377	1548	153
0	2264903	1549	145
0	2266411	1550	132
0	2267917	1551	147
0	2269425	1552	139
0	2270927	1553	149
0	2272194	1554	108
0	2273525	1555	112
0	2275205	1556	165
0	2276920	1557	168
0	2278318	1558	127
0	2280028	1559	153
0	2281444	1560	136
0	2283019	1561	142
0	2284306	1562	126
0	2285517	1563	122
0	2287207	1564	175
0	2288511	1565	121
0	2289919	1566	135
0	2291363	1567	121
0	2292875	1568	135
0	2294315	1569	133
0	2295861	1570	150
0	2297123	1571	123
0	2298738	1572	170
0	2300277	1573	138
0	2301784	1574	142
0	2303371	1575	142
0	2304515	1576	117
0	2306250	1577	172
0	2308181	1578	188
0	2309388	1579	114
0	2310850	1580	146
0	2312330	1581	149
0	2313432	1582	107
0	2314524	1583	99
0	2315902	1584	117
0	2317414	1585	157
0	2318906	1586	145
0	2320607	1587	162
0	2321957	1588	131
0	2323431	1589	137
0	2324701	1590	118
0	2326186	1591	136
0	2327817	1592	166
0	2329224	1593	132
0	2330881	1594	162
0	2332701	1595	181
0	2334432	1596	160
0	2335861	1597	140
0	2337073	1598	107
0	2338437	1599	121
0	2339724	1600	121
0	2341362	1601	151
0	2343009	1602	170
0	2344301	1603	121
0	2345695	1604	139
0	2347027	1605	127
0	2348600	1606	150
0	2349865	1607	122
0	2351421	1608	143
0	2352569	1609	105
0	2353924	1610	147
0	2355579	1611	172
0	2356986	1612	134
0	2358273	1613	124
0	2359788	1614	138