version 3
run SimulationTime-103-20240107-16:16:08-22064
attr configname SimulationTime
attr datetime 20240107-16:16:08
attr datetimef 20240107-161608
attr experiment SimulationTime
attr inifile omnetpp.ini
attr iterationvars ""
attr iterationvarsd ""
attr iterationvarsf ""
attr measurement ""
attr network System
attr processid 22064
attr repetition 103
attr replication #103
attr resultdir results
attr runnumber 103
attr seedset 103
config **.cpu.rate 1000
config **.hd.rateProcessing 250
config **.webServer.web_server_rate 100
config **.p1 0.35
config **.p2 0.40
config network System
config num-rngs 4
config **.cpu.rng-0 0
config **.cpu.rng-1 1
config **.hd.rng-0 2
config **.webServer.rng-0 3
config repeat 500
config seed-set 103
config sim-time-limit 10000s
config **.client.numClients 40

vector 0 System.server.cpu requestCounterStat:vector ETV
attr recordingmode vector
attr source requestCounter
vector 1 System.server.hd utilizationHdStat:vector ETV
attr recordingmode vector
attr source utilizationHd
vector 2 System.server.cpu utilizationCpuStat:vector ETV
attr recordingmode vector
attr source utilizationCpu
vector 3 System.webServer utilizationWsStat:vector ETV
attr recordingmode vector
attr source utilizationWs
0	2324	1	239
0	4008	2	169
0	5797	3	184
0	7782	4	202
0	9037	5	116
0	10476	6	132
0	11921	7	144
0	13117	8	105
0	14851	9	171
0	16514	10	161
0	18106	11	159
0	19692	12	147
0	21317	13	158
0	22475	14	115
0	23876	15	148
0	25275	16	132
0	26630	17	120
0	28239	18	144
0	29787	19	159
0	31171	20	130
0	32582	21	138
0	33663	22	100
0	34862	23	100
0	36726	24	199
0	37986	25	117
0	39259	26	118
0	40784	27	150
0	42285	28	140
0	43653	29	127
0	45128	30	145
0	46624	31	139
0	47984	32	141
0	49695	33	142
0	51571	34	177
0	53127	35	161
0	54617	36	139
0	56137	37	163
0	57474	38	128
0	58741	39	112
0	60051	40	114
0	61298	41	120
0	63085	42	164
0	64317	43	105
0	65663	44	143
0	67230	45	158
0	68575	46	124
0	70141	47	163
0	71447	48	105
0	73054	49	168
0	74512	50	130
0	75724	51	103
0	76955	52	104
0	78811	53	177
0	80543	54	169
0	81848	55	110
0	82947	56	104
0	83862	57	70
0	85013	58	92
0	86288	59	124
0	88162	60	182
0	89671	61	152
0	90775	62	81
0	92031	63	125
0	93555	64	141
0	94935	65	145
0	96231	66	117
0	97795	67	153
0	99429	68	151
0	100893	69	169
0	102640	70	181
0	103971	71	138
0	105523	72	167
0	107079	73	161
0	108383	74	111
0	110079	75	189
0	111277	76	107
0	112553	77	117
0	114020	78	150
0	115438	79	123
0	117302	80	176
0	118683	81	124
0	120171	82	153
0	121595	83	141
0	123017	84	127
0	124341	85	137
0	125660	86	126
0	127126	87	145
0	128596	88	145
0	129844	89	129
0	131221	90	131
0	132445	91	125
0	133940	92	150
0	135429	93	140
0	136841	94	141
0	138338	95	154
0	139505	96	100
0	140943	97	141
0	142221	98	121
0	143558	99	124
0	145288	100	190
0	146957	101	158
0	148447	102	133
0	149848	103	128
0	151610	104	177
0	152956	105	117
0	154283	106	122
0	155762	107	124
0	157082	108	135
0	158236	109	99
0	159700	110	154
0	161355	111	160
0	162830	112	142
0	164598	113	169
0	166232	114	171
0	167676	115	129
0	169113	116	164
0	169974	117	84
0	171526	118	165
0	173097	119	144
0	174527	120	132
0	175577	121	99
0	177396	122	186
0	178981	123	162
0	180306	124	126
0	181975	125	164
0	183240	126	120
0	184661	127	142
0	185895	128	121
0	187347	129	145
0	188769	130	122
0	189963	131	113
0	191428	132	150
0	192742	133	135
0	194190	134	167
0	195689	135	134
0	197283	136	143
0	199058	137	188
0	200449	138	150
0	201987	139	149
0	203392	140	129
0	204779	141	118
0	206030	142	112
0	207610	143	161
0	209112	144	157
0	210262	145	119
0	211881	146	170
0	213146	147	124
0	214599	148	138
0	215922	149	102
0	216993	150	87
0	218350	151	122
0	220018	152	163
0	221662	153	165
0	222813	154	114
0	224009	155	121
0	225362	156	128
0	226888	157	159
0	228014	158	97
0	229743	159	166
0	231444	160	155
0	233084	161	157
0	234479	162	132
0	235931	163	131
0	237353	164	131
0	238532	165	100
0	240256	166	165
0	241630	167	121
0	242855	168	110
0	244259	169	135
0	245836	170	155
0	247101	171	118
0	248555	172	133
0	249784	173	118
0	251262	174	121
0	252643	175	128
0	254047	176	149
0	255480	177	132
0	256802	178	129
0	257905	179	100
0	259118	180	127
0	260756	181	163
0	262149	182	132
0	263459	183	119
0	264546	184	82
0	265922	185	141
0	267293	186	124
0	268427	187	109
0	269844	188	114
0	271001	189	98
0	272613	190	148
0	274077	191	131
0	275687	192	133
0	277409	193	181
0	278607	194	97
0	280153	195	167
0	281723	196	141
0	283464	197	170
0	284796	198	91
0	286314	199	145
0	288055	200	187
0	289354	201	124
0	290627	202	118
0	292073	203	139
0	293475	204	143
0	294994	205	150
0	296604	206	159
0	298046	207	159
0	299256	208	99
0	300426	209	107
0	301957	210	137
0	303339	211	149
0	305211	212	187
0	306550	213	130
0	308098	214	137
0	309732	215	131
0	311307	216	142
0	312693	217	129
0	314252	218	140
0	316010	219	177
0	317195	220	109
0	318872	221	162
0	320022	222	105
0	321499	223	140
0	323435	224	201
0	325139	225	145
0	326512	226	144
0	327726	227	127
0	329110	228	125
0	330416	229	123
0	332168	230	200
0	333341	231	112
0	334416	232	96
0	336131	233	144
0	337536	234	140
0	338878	235	129
0	340409	236	140
0	341953	237	153
0	343309	238	149
0	344685	239	145
0	346268	240	161
0	347991	241	194
0	349601	242	155
0	351331	243	169
0	352799	244	147
0	354483	245	181
0	355755	246	113
0	357328	247	160
0	358798	248	163
0	360294	249	139
0	361657	250	127
0	363031	251	131
0	364589	252	155
0	366050	253	148
0	367473	254	126
0	368789	255	125
0	370242	256	152
0	371365	257	94
0	372730	258	130
0	374435	259	156
0	376329	260	174
0	378348	261	208
0	379729	262	130
0	381097	263	127
0	382224	264	108
0	383670	265	137
0	385497	266	194
0	386784	267	134
0	388093	268	122
0	389531	269	129
0	391190	270	145
0	392501	271	122
0	393926	272	124
0	395250	273	133
0	396636	274	115
0	397808	275	109
0	399251	276	118
0	400201	277	67
0	401751	278	147
0	403036	279	116
0	404403	280	129
0	405902	281	126
0	407370	282	163
0	408888	283	141
0	410343	284	142
0	411968	285	140
0	413341	286	138
0	414363	287	97
0	416037	288	161
0	417358	289	126
0	418521	290	101
0	420051	291	163
0	421791	292	163
0	423108	293	126
0	424599	294	126
0	425702	295	104
0	427187	296	142
0	429123	297	197
0	430464	298	120
0	432023	299	174
0	433580	300	147
0	434904	301	121
0	436125	302	108
0	437698	303	152
0	438960	304	115
0	440421	305	120
0	441855	306	135
0	443224	307	134
0	444929	308	162
0	446339	309	125
0	447915	310	138
0	449596	311	152
0	450981	312	130
0	452733	313	173
0	454396	314	138
0	455683	315	124
0	457084	316	130
0	458581	317	142
0	460351	318	147
0	462187	319	161
0	463523	320	116
0	465202	321	158
0	466679	322	156
0	468503	323	189
0	469958	324	130
0	471587	325	152
0	473385	326	169
0	474913	327	151
0	476293	328	133
0	477826	329	158
0	479609	330	191
0	480785	331	103
0	482409	332	167
0	483751	333	127
0	484881	334	107
0	486299	335	135
0	487835	336	137
0	488993	337	105
0	490223	338	123
0	491614	339	128
0	492959	340	141
0	494347	341	149
0	496101	342	153
0	497714	343	132
0	499062	344	127
0	500384	345	141
0	501665	346	140
0	502996	347	154
0	504412	348	137
0	505823	349	130
0	507449	350	162
0	508931	351	131
0	510331	352	129
0	511399	353	111
0	513201	354	177
0	514325	355	105
0	515855	356	155
0	517209	357	135
0	518582	358	132
0	519768	359	119
0	521661	360	179
0	523343	361	175
0	524610	362	98
0	525965	363	122
0	527749	364	173
0	529235	365	143
0	530498	366	118
0	532015	367	148
0	533343	368	123
0	535092	369	162
0	536753	370	155
0	538448	371	166
0	540011	372	142
0	541691	373	157
0	542944	374	128
0	544104	375	103
0	545275	376	108
0	546472	377	106
0	548200	378	171
0	549401	379	124
0	550707	380	114
0	551970	381	120
0	553687	382	160
0	554740	383	88
0	556324	384	155
0	557664	385	135
0	559094	386	141
0	560548	387	165
0	562005	388	130
0	563592	389	146
0	564932	390	124
0	566384	391	131
0	568181	392	160
0	569876	393	152
0	571362	394	147
0	572844	395	131
0	574335	396	162
0	575675	397	127
0	576977	398	117
0	578562	399	150
0	580323	400	171
0	581538	401	124
0	582955	402	146
0	584350	403	136
0	585816	404	141
0	587092	405	95
0	588477	406	132
0	589931	407	151
0	591453	408	149
0	593026	409	142
0	594342	410	124
0	595917	411	164
0	597290	412	134
0	598609	413	130
0	599979	414	119
0	601397	415	141
0	602981	416	157
0	604540	417	164
0	606111	418	152
0	607433	419	135
0	608998	420	161
0	610813	421	196
0	612366	422	144
0	613742	423	131
0	614994	424	119
0	616914	425	197
0	618584	426	153
0	620274	427	159
0	621528	428	123
0	622959	429	130
0	624222	430	115
0	625779	431	162
0	626845	432	99
0	628650	433	188
0	630466	434	181
0	631999	435	152
0	633363	436	127
0	634741	437	125
0	636309	438	153
0	637825	439	137
0	639265	440	158
0	640386	441	102
0	641948	442	143
0	643438	443	151
0	644808	444	135
0	646205	445	124
0	647747	446	137
0	649158	447	148
0	650668	448	161
0	652124	449	135
0	653390	450	106
0	655130	451	173
0	656069	452	90
0	657600	453	152
0	659208	454	149
0	660742	455	157
0	662044	456	107
0	663419	457	138
0	664646	458	114
0	665971	459	118
0	667794	460	191
0	669227	461	134
0	670877	462	149
0	672543	463	183
0	673801	464	109
0	675136	465	132
0	676717	466	152
0	678008	467	94
0	679415	468	132
0	680748	469	138
0	682081	470	159
0	683308	471	98
0	684473	472	108
0	685874	473	126
0	687287	474	152
0	688866	475	140
0	690444	476	149
0	691923	477	148
0	693225	478	115
0	694613	479	129
0	696220	480	155
0	697372	481	101
0	698890	482	141
0	700347	483	144
0	701994	484	166
0	703418	485	153
0	704845	486	154
0	706339	487	145
0	707533	488	109
0	708950	489	136
0	710560	490	170
0	711930	491	129
0	713378	492	143
0	714552	493	103
0	716387	494	180
0	717603	495	115
0	718861	496	117
0	720613	497	159
0	722087	498	155
0	723502	499	146
0	724703	500	103
0	725966	501	114
0	727324	502	147
0	728632	503	139
0	730556	504	185
0	732201	505	164
0	733597	506	131
0	735203	507	169
0	736875	508	147
0	738242	509	130
0	739854	510	148
0	741223	511	152
0	742868	512	152
0	744325	513	140
0	745621	514	123
0	747152	515	132
0	748623	516	130
0	750117	517	137
0	751999	518	185
0	753420	519	132
0	754859	520	137
0	756254	521	112
0	757663	522	140
0	759046	523	126
0	760509	524	140
0	761952	525	126
0	763290	526	123
0	764661	527	138
0	766379	528	167
0	767857	529	145
0	769412	530	167
0	770915	531	178
0	772600	532	176
0	774183	533	154
0	775319	534	93
0	776475	535	111
0	778266	536	166
0	779876	537	151
0	781184	538	135
0	782661	539	144
0	784025	540	156
0	785351	541	131
0	786562	542	102
0	787748	543	111
0	789029	544	124
0	790414	545	124
0	792033	546	158
0	793623	547	155
0	794919	548	137
0	796640	549	184
0	798252	550	164
0	799746	551	139
0	801079	552	132
0	802468	553	136
0	804062	554	135
0	805596	555	139
0	807295	556	158
0	808701	557	115
0	810408	558	154
0	811571	559	98
0	813229	560	156
0	814639	561	121
0	816261	562	171
0	817549	563	121
0	819260	564	166
0	820594	565	119
0	822189	566	158
0	823646	567	120
0	825320	568	161
0	826886	569	137
0	828772	570	186
0	830320	571	141
0	832003	572	166
0	833538	573	170
0	834908	574	103
0	836031	575	102
0	837269	576	131
0	838774	577	152
0	840478	578	149
0	841717	579	134
0	842748	580	97
0	844051	581	128
0	845563	582	155
0	846916	583	124
0	848132	584	121
0	849835	585	184
0	851313	586	153
0	852870	587	138
0	854299	588	118
0	855812	589	140
0	857493	590	151
0	858867	591	121
0	860462	592	144
0	861844	593	163
0	863460	594	173
0	865108	595	165
0	866459	596	126
0	867909	597	131
0	868925	598	89
0	870483	599	143
0	871907	600	124
0	873212	601	122
0	874942	602	169
0	876332	603	127
0	878232	604	189
0	879529	605	124
0	881276	606	164
0	882679	607	140
0	884266	608	164
0	885755	609	128
0	887096	610	127
0	888513	611	134
0	890288	612	154
0	891529	613	116
0	892727	614	117
0	894080	615	118
0	895577	616	128
0	896917	617	103
0	898379	618	151
0	899918	619	144
0	901408	620	148
0	902784	621	123
0	904336	622	155
0	905548	623	123
0	906975	624	142
0	908106	625	106
0	909415	626	116
0	910599	627	101
0	911823	628	109
0	913156	629	140
0	914702	630	150
0	916165	631	146
0	917314	632	88
0	918661	633	118
0	920248	634	154
0	921859	635	162
0	923157	636	135
0	924600	637	132
0	926237	638	162
0	927775	639	161
0	929272	640	149
0	930397	641	90
0	931985	642	161
0	933285	643	131
0	934566	644	122
0	936206	645	155
0	937698	646	157
0	939301	647	162
0	940528	648	120
0	941838	649	115
0	943501	650	139
0	944820	651	122
0	946328	652	127
0	947979	653	138
0	949747	654	175
0	951231	655	149
0	952639	656	137
0	954194	657	150
0	955597	658	128
0	957227	659	165
0	959017	660	176
0	960330	661	114
0	961953	662	154
0	963295	663	119
0	964722	664	142
0	966331	665	168
0	967749	666	147
0	969481	667	181
0	971085	668	137
0	972519	669	139
0	974028	670	163
0	975692	671	155
0	977153	672	130
0	978604	673	138
0	979992	674	133
0	981618	675	167
0	983303	676	176
0	984740	677	114
0	986141	678	124
0	987276	679	104
0	988258	680	82
0	989872	681	155
0	991303	682	144
0	992895	683	159
0	994659	684	195
0	996208	685	146
0	997374	686	103
0	998827	687	140
0	1000256	688	140
0	1001794	689	153
0	1003335	690	145
0	1004546	691	110
0	1005783	692	120
0	1007350	693	160
0	1008883	694	134
0	1010370	695	146
0	1011380	696	93
0	1012695	697	146
0	1014232	698	150
0	1015518	699	119
0	1017050	700	132
0	1018817	701	154
0	1019960	702	106
0	1021235	703	134
0	1022593	704	123
0	1024397	705	169
0	1025896	706	146
0	1027841	707	172
0	1029103	708	127
0	1030716	709	166
0	1032610	710	198
0	1033765	711	116
0	1035275	712	153
0	1036663	713	127
0	1038364	714	174
0	1039595	715	116
0	1040802	716	102
0	1041927	717	100
0	1043669	718	171
0	1045504	719	158
0	1046943	720	145
0	1048388	721	134
0	1049848	722	157
0	1051140	723	131
0	1052344	724	113
0	1053700	725	125
0	1055551	726	178
0	1056985	727	129
0	1058665	728	159
0	1059987	729	131
0	1061131	730	124
0	1062897	731	197
0	1064457	732	131
0	1065843	733	111
0	1067193	734	119
0	1068499	735	107
0	1070057	736	157
0	1071226	737	114
0	1072581	738	126
0	1073920	739	136
0	1075636	740	170
0	1077001	741	122
0	1078624	742	154
0	1080323	743	154
0	1081713	744	121
0	1082739	745	95
0	1084101	746	115
0	1085574	747	124
0	1087179	748	172
0	1088761	749	143
0	1090282	750	143
0	1091551	751	118
0	1093230	752	154
0	1094990	753	167
0	1096530	754	141
0	1098085	755	154
0	1099544	756	144
0	1101370	757	173
0	1102603	758	112
0	1103852	759	128
0	1105288	760	136
0	1106459	761	100
0	1107875	762	131
0	1109196	763	116
0	1110803	764	146
0	1112039	765	117
0	1113421	766	131
0	1115197	767	145
0	1117009	768	185
0	1118621	769	157
0	1119899	770	100
0	1121529	771	149
0	1122840	772	140
0	1124574	773	175
0	1125950	774	135
0	1127333	775	126
0	1128828	776	136
0	1130287	777	126
0	1131740	778	120
0	1133046	779	117
0	1134527	780	139
0	1135895	781	119
0	1137424	782	148
0	1139268	783	175
0	1140789	784	126
0	1142269	785	143
0	1143703	786	139
0	1145029	787	151
0	1146013	788	93
0	1147324	789	110
0	1148929	790	157
0	1150501	791	139
0	1152156	792	146
0	1153652	793	151
0	1155125	794	154
0	1156525	795	141
0	1157855	796	127
0	1158977	797	99
0	1160561	798	175
0	1162060	799	154
0	1163652	800	162
0	1164911	801	108
0	1166198	802	106
0	1167539	803	108
0	1169107	804	143
0	1170565	805	155
0	1172253	806	183
0	1173787	807	149
0	1175076	808	112
0	1176473	809	124
0	1178110	810	171
0	1179634	811	133
0	1181116	812	131
0	1182435	813	122
0	1184079	814	157
0	1185718	815	146
0	1187063	816	130
0	1188298	817	110
0	1189909	818	152
0	1191761	819	173
0	1193268	820	145
0	1194605	821	124
0	1196029	822	131
0	1197564	823	136
0	1199169	824	146
0	1200430	825	128
0	1201709	826	128
0	1203199	827	139
0	1204611	828	145
0	1206347	829	185
0	1207997	830	152
0	1209728	831	160
0	1211437	832	180
0	1212735	833	123
0	1214061	834	127
0	1215781	835	187
0	1217525	836	187
0	1218954	837	114
0	1220564	838	145
0	1221973	839	140
0	1223551	840	150
0	1225043	841	139
0	1226410	842	124
0	1227863	843	154
0	1229495	844	163
0	1230636	845	94
0	1231949	846	118
0	1233743	847	179
0	1235295	848	147
0	1236596	849	114
0	1237972	850	124
0	1239127	851	102
0	1240546	852	132
0	1242121	853	132
0	1243578	854	148
0	1244886	855	141
0	1246460	856	151
0	1248044	857	169
0	1249192	858	101
0	1250641	859	136
0	1252130	860	143
0	1253707	861	160
0	1255363	862	161
0	1256753	863	133
0	1258138	864	128
0	1259352	865	107
0	1260686	866	133
0	1261899	867	104
0	1263114	868	124
0	1264359	869	104
0	1265991	870	154
0	1267296	871	116
0	1268672	872	125
0	1270196	873	149
0	1271874	874	151
0	1273190	875	121
0	1274703	876	140
0	1275868	877	108
0	1277357	878	152
0	1279127	879	159
0	1280565	880	118
0	1282033	881	147
0	1283461	882	139
0	1284830	883	128
0	1286809	884	202
0	1288483	885	153
0	1289886	886	144
0	1291094	887	115
0	1292445	888	124
0	1293547	889	101
0	1295263	890	148
0	1296578	891	150
0	1297825	892	134
0	1299145	893	123
0	1300289	894	99
0	1301826	895	154
0	1303130	896	117
0	1304608	897	127
0	1305977	898	126
0	1307241	899	115
0	1308980	900	165
0	1310546	901	151
0	1312185	902	148
0	1313753	903	169
0	1314995	904	141
0	1316413	905	127
0	1318185	906	181
0	1319514	907	128
0	1320811	908	110
0	1322502	909	166
0	1324368	910	186
0	1325909	911	146
0	1327463	912	157
0	1328875	913	145
0	1330421	914	145
0	1331832	915	142
0	1333358	916	151
0	1334746	917	127
0	1336202	918	123
0	1337751	919	138
0	1339303	920	152
0	1341140	921	178
0	1342866	922	175
0	1344039	923	116
0	1345171	924	89
0	1346962	925	170
0	1348547	926	140
0	1350025	927	151
0	1351464	928	138
0	1352526	929	87
0	1353630	930	96
0	1354977	931	126
0	1356883	932	203
0	1358316	933	124
0	1359680	934	125
0	1361010	935	123
0	1362774	936	197
0	1364288	937	135
0	1365956	938	167
0	1367408	939	127
0	1368774	940	126
0	1370248	941	163
0	1371614	942	117
0	1373136	943	135
0	1374821	944	174
0	1376134	945	116
0	1377655	946	144
0	1379211	947	153
0	1380711	948	153
0	1382126	949	134
0	1383736	950	154
0	1385029	951	118
0	1386786	952	176
0	1388485	953	170
0	1390073	954	159
0	1391491	955	131
0	1393620	956	202
0	1395166	957	147
0	1396638	958	135
0	1398479	959	156
0	1400010	960	153
0	1401396	961	147
0	1402873	962	134
0	1404466	963	138
0	1405973	964	150
0	1407517	965	145
0	1409032	966	158
0	1410569	967	148
0	1412010	968	144
0	1413348	969	131
0	1414866	970	150
0	1416520	971	163
0	1418199	972	162
0	1420012	973	172
0	1421387	974	154
0	1422949	975	143
0	1424169	976	121
0	1425540	977	110
0	1426979	978	138
0	1428324	979	132
0	1429959	980	149
0	1431885	981	195
0	1433187	982	131
0	1434809	983	171
0	1436312	984	150
0	1437801	985	132
0	1439092	986	124
0	1440219	987	100
0	1442219	988	201
0	1443525	989	123
0	1445170	990	173
0	1446700	991	143
0	1448586	992	193
0	1450118	993	133
0	1451580	994	145
0	1453080	995	143
0	1454725	996	160
0	1456012	997	114
0	1457636	998	145
0	1459011	999	112
0	1460288	1000	121
0	1461811	1001	142
0	1463485	1002	175
0	1465037	1003	133
0	1466375	1004	115
0	1467620	1005	136
0	1469022	1006	119
0	1470256	1007	107
0	1471510	1008	111
0	1473086	1009	139
0	1474985	1010	177
0	1476235	1011	125
0	1477563	1012	135
0	1479048	1013	142
0	1480244	1014	115
0	1481591	1015	126
0	1482879	1016	131
0	1484513	1017	147
0	1485923	1018	135
0	1487210	1019	124
0	1488977	1020	159
0	1490174	1021	110
0	1491876	1022	161
0	1493422	1023	151
0	1494932	1024	143
0	1496699	1025	170
0	1498086	1026	134
0	1499525	1027	130
0	1501082	1028	158
0	1502881	1029	200
0	1504311	1030	148
0	1506021	1031	161
0	1507373	1032	121
0	1508578	1033	96
0	1509915	1034	108
0	1511224	1035	116
0	1512723	1036	138
0	1514171	1037	131
0	1515862	1038	186
0	1517495	1039	166
0	1519186	1040	171
0	1520717	1041	146
0	1521982	1042	118
0	1523425	1043	142
0	1525061	1044	169
0	1526418	1045	132
0	1527828	1046	135
0	1529384	1047	143
0	1530535	1048	108
0	1532098	1049	162
0	1533509	1050	127
0	1534926	1051	126
0	1536245	1052	118
0	1537967	1053	167
0	1539546	1054	154
0	1540752	1055	131
0	1542327	1056	154
0	1543652	1057	106
0	1544838	1058	103
0	1546294	1059	135
0	1547850	1060	156
0	1549645	1061	186
0	1551217	1062	153
0	1552682	1063	134
0	1553876	1064	105
0	1555432	1065	137
0	1556919	1066	136
0	1558499	1067	151
0	1560074	1068	136
0	1561609	1069	148
0	1562900	1070	113
0	1564495	1071	150
0	1565691	1072	113
0	1567272	1073	142
0	1569058	1074	179
0	1570445	1075	140
0	1571861	1076	137
0	1573107	1077	135
0	1574608	1078	144
0	1576287	1079	166
0	1577772	1080	115
0	1579243	1081	130
0	1580642	1082	134
0	1582283	1083	154
0	1583664	1084	146
0	1584940	1085	127
0	1586309	1086	138
0	1587580	1087	108
0	1589158	1088	155
0	1590691	1089	156
0	1592307	1090	170
0	1593697	1091	127
0	1595139	1092	133
0	1596849	1093	153
0	1598112	1094	118
0	1599710	1095	149
0	1601410	1096	171
0	1602666	1097	125
0	1604077	1098	126
0	1605799	1099	155
0	1607347	1100	152
0	1608573	1101	135
0	1610210	1102	140
0	1611903	1103	176
0	1613375	1104	145
0	1614854	1105	142
0	1616299	1106	128
0	1617826	1107	142
0	1619136	1108	127
0	1620379	1109	110
0	1621501	1110	110
0	1622869	1111	127
0	1624216	1112	120
0	1625740	1113	149
0	1627058	1114	121
0	1628223	1115	126
0	1629827	1116	163
0	1631293	1117	135
0	1632607	1118	129
0	1634113	1119	155
0	1636070	1120	193
0	1637330	1121	127
0	1639052	1122	167
0	1640568	1123	151
0	1641802	1124	103
0	1643265	1125	128
0	1644511	1126	123
0	1646193	1127	157
0	1647671	1128	145
0	1649320	1129	152
0	1650836	1130	132
0	1652295	1131	130
0	1653647	1132	145
0	1654904	1133	96
0	1656374	1134	141
0	1657820	1135	133
0	1659383	1136	160
0	1660778	1137	136
0	1662044	1138	133
0	1663565	1139	130
0	1665049	1140	132
0	1666496	1141	132
0	1668146	1142	145
0	1669497	1143	116
0	1671341	1144	179
0	1672716	1145	116
0	1674397	1146	154
0	1675571	1147	103
0	1676862	1148	126
0	1678086	1149	121
0	1679568	1150	134
0	1680855	1151	134
0	1682504	1152	192
0	1684075	1153	166
0	1685728	1154	164
0	1686919	1155	112
0	1688535	1156	155
0	1689836	1157	120
0	1691626	1158	175
0	1692923	1159	130
0	1694647	1160	158
0	1696113	1161	169
0	1697446	1162	118
0	1699192	1163	161
0	1700912	1164	155
0	1702160	1165	117
0	1703754	1166	147
0	1705117	1167	138
0	1706582	1168	134
0	1707984	1169	125
0	1709212	1170	112
0	1710693	1171	142
0	1712296	1172	132
0	1713619	1173	126
0	1715159	1174	167
0	1716751	1175	143
0	1718350	1176	166
0	1719934	1177	149
0	1721254	1178	113
0	1722698	1179	141
0	1724289	1180	131
0	1725759	1181	133
0	1727199	1182	133
0	1728871	1183	149
0	1730274	1184	130
0	1731676	1185	127
0	1732951	1186	112
0	1734074	1187	108
0	1735442	1188	129
0	1736841	1189	136
0	1738132	1190	129
0	1739539	1191	144
0	1740916	1192	140
0	1742821	1193	196
0	1744353	1194	153
0	1745768	1195	146
0	1747034	1196	123
0	1748437	1197	124
0	1749960	1198	158
0	1751443	1199	128
0	1752712	1200	135
0	1753972	1201	117
0	1755466	1202	143
0	1756964	1203	143
0	1758622	1204	161
0	1760065	1205	136
0	1761446	1206	124
0	1763250	1207	193
0	1764704	1208	147
0	1766114	1209	127
0	1767644	1210	136
0	1768983	1211	116
0	1770502	1212	146
0	1772053	1213	154
0	1773533	1214	131
0	1774932	1215	144
0	1776248	1216	125
0	1777741	1217	152
0	1779334	1218	150
0	1780815	1219	136
0	1782371	1220	160
0	1784129	1221	181
0	1785458	1222	112
0	1786737	1223	106
0	1788467	1224	189
0	1789784	1225	112
0	1791010	1226	121
0	1792400	1227	129
0	1793676	1228	121
0	1794989	1229	134
0	1796166	1230	115
0	1797427	1231	140
0	1798823	1232	133
0	1800344	1233	148
0	1801731	1234	132
0	1803569	1235	185
0	1805077	1236	137
0	1806841	1237	171
0	1808438	1238	134
0	1810109	1239	166
0	1811465	1240	110
0	1813249	1241	155
0	1814621	1242	129
0	1816045	1243	121
0	1817075	1244	103
0	1818308	1245	116
0	1819566	1246	125
0	1820948	1247	137
0	1822260	1248	113
0	1823483	1249	124
0	1825106	1250	165
0	1826528	1251	145
0	1827903	1252	122
0	1829264	1253	128
0	1830430	1254	115
0	1831958	1255	133
0	1833267	1256	120
0	1834763	1257	135
0	1835981	1258	113
0	1837547	1259	151
0	1839081	1260	160
0	1840526	1261	150
0	1841924	1262	137
0	1843266	1263	121
0	1844604	1264	119
0	1846044	1265	129
0	1847323	1266	110
0	1848614	1267	128
0	1850167	1268	134
0	1851572	1269	138
0	1852810	1270	130
0	1854191	1271	142
0	1855418	1272	130
0	1856974	1273	147
0	1858606	1274	183
0	1859747	1275	124
0	1860944	1276	116
0	1862364	1277	145
0	1863769	1278	126
0	1865429	1279	163
0	1866832	1280	125
0	1868406	1281	187
0	1869749	1282	128
0	1871013	1283	113
0	1872373	1284	131
0	1874015	1285	161
0	1875499	1286	149
0	1877207	1287	159
0	1878328	1288	104
0	1879679	1289	128
0	1881125	1290	146
0	1882714	1291	158
0	1884021	1292	126
0	1885632	1293	144
0	1887046	1294	139
0	1888366	1295	117
0	1889944	1296	159
0	1891377	1297	142
0	1893163	1298	159
0	1894479	1299	125
0	1896119	1300	168
0	1897462	1301	134
0	1898898	1302	133
0	1900501	1303	146
0	1902066	1304	152
0	1903433	1305	118
0	1904505	1306	101
0	1905883	1307	123
0	1907424	1308	128
0	1909155	1309	182
0	1910801	1310	146
0	1912224	1311	142
0	1913681	1312	144
0	1914984	1313	138
0	1916741	1314	180
0	1918315	1315	155
0	1919910	1316	150
0	1921449	1317	166
0	1922760	1318	136
0	1924583	1319	184
0	1926155	1320	158
0	1927852	1321	154
0	1929333	1322	146
0	1930542	1323	118
0	1931846	1324	133
0	1933134	1325	135
0	1934612	1326	145
0	1935736	1327	111
0	1936710	1328	89
0	1938271	1329	152
0	1939403	1330	100
0	1940763	1331	143
0	1942375	1332	153
0	1943969	1333	149
0	1945327	1334	131
0	1947008	1335	164
0	1948486	1336	129
0	1949746	1337	127
0	1951145	1338	124
0	1952587	1339	133
0	1954338	1340	165
0	1955926	1341	169
0	1957469	1342	146
0	1959146	1343	174
0	1961225	1344	222
0	1962670	1345	142
0	1964135	1346	136
0	1965496	1347	144
0	1966867	1348	136
0	1968549	1349	155
0	1969959	1350	120
0	1971518	1351	146
0	1973276	1352	163
0	1974655	1353	130
0	1976016	1354	130
0	1977587	1355	168
0	1979001	1356	155
0	1980293	1357	111
0	1981749	1358	139
0	1983434	1359	166
0	1984793	1360	131
0	1986318	1361	150
0	1987717	1362	136
0	1988903	1363	115
0	1990416	1364	144
0	1991821	1365	130
0	1993448	1366	144
0	1994794	1367	129
0	1996154	1368	143
0	1997868	1369	179
0	1999152	1370	124
0	2000778	1371	151
0	2002389	1372	160
0	2003896	1373	146
0	2005430	1374	157
0	2006718	1375	127
0	2008094	1376	139
0	2009641	1377	152
0	2010885	1378	109
0	2012653	1379	175
0	2013735	1380	94
0	2015040	1381	140
0	2016605	1382	146
0	2018023	1383	145
0	2019524	1384	136
0	2020495	1385	98
0	2021642	1386	94
0	2022947	1387	108
0	2024307	1388	137
0	2025657	1389	135
0	2027417	1390	158
0	2029115	1391	169
0	2030483	1392	121
0	2031966	1393	138
0	2033149	1394	112
0	2034777	1395	173
0	2036163	1396	143
0	2038029	1397	183
0	2039572	1398	160
0	2041241	1399	178
0	2043130	1400	193
0	2044705	1401	162
0	2046108	1402	148
0	2047715	1403	170
0	2049083	1404	137
0	2050909	1405	169
0	2052084	1406	102
0	2053752	1407	141
0	2055232	1408	139
0	2056539	1409	130
0	2057751	1410	102
0	2059185	1411	139
0	2060665	1412	129
0	2062651	1413	207
0	2064379	1414	149
0	2065731	1415	117
0	2067194	1416	146
0	2068580	1417	119
0	2070190	1418	159
0	2071575	1419	132
0	2072904	1420	127
0	2074614	1421	171
0	2076069	1422	146
0	2077338	1423	128
0	2078745	1424	128
0	2079862	1425	106
0	2081233	1426	132
0	2082247	1427	93
0	2083782	1428	138
0	2085097	1429	126
0	2086388	1430	137
0	2087534	1431	103
0	2089223	1432	160
0	2090674	1433	134
0	2091953	1434	118
0	2093486	1435	144
0	2094937	1436	146
0	2096366	1437	144
0	2097916	1438	143
0	2099412	1439	145
0	2100645	1440	113
0	2102435	1441	193
0	2103831	1442	137
0	2105617	1443	191
0	2106826	1444	116
0	2108386	1445	149
0	2109434	1446	105
0	2111028	1447	155
0	2112190	1448	111
0	2113275	1449	98
0	2114773	1450	160
0	2116249	1451	121
0	2117527	1452	123
0	2119150	1453	156
0	2120889	1454	180
0	2122507	1455	147
0	2123991	1456	137
0	2125544	1457	176
0	2127054	1458	141
0	2128295	1459	120
0	2129872	1460	145
0	2130913	1461	92
0	2132218	1462	124
0	2133771	1463	146
0	2135052	1464	122
0	2136438	1465	123
0	2137907	1466	146
0	2139441	1467	143
0	2141026	1468	162
0	2142201	1469	96
0	2143988	1470	167
0	2145453	1471	128
0	2146741	1472	117
0	2148166	1473	120
0	2149400	1474	101
0	2150691	1475	126
0	2151932	1476	118
0	2153743	1477	182
0	2154948	1478	114
0	2156459	1479	146
0	2158009	1480	160
0	2159099	1481	103
0	2160503	1482	119
0	2161963	1483	139
0	2163360	1484	124
0	2165130	1485	179
0	2166523	1486	144
0	2167687	1487	109
0	2169140	1488	146
0	2170530	1489	141
0	2171891	1490	123
0	2173132	1491	112
0	2174693	1492	156
0	2176213	1493	161
0	2177963	1494	191
0	2179294	1495	136
0	2180817	1496	148
0	2182255	1497	123
0	2183490	1498	102
0	2184825	1499	130
0	2186462	1500	151
0	2187925	1501	148
0	2189075	1502	111
0	2190568	1503	146
0	2192097	1504	140
0	2193287	1505	99
0	2194755	1506	149
0	2196136	1507	116
0	2197745	1508	160
0	2198947	1509	107
0	2200517	1510	150
0	2201966	1511	134
0	2203346	1512	127
0	2204724	1513	119
0	2206511	1514	176
0	2208066	1515	162
0	2209167	1516	106
0	2210515	1517	137
0	2211840	1518	134
0	2213524	1519	171
0	2214873	1520	131
0	2216066	1521	120
0	2217365	1522	116
0	2219022	1523	150
0	2220476	1524	151
0	2221531	1525	98
0	2223011	1526	165
0	2224808	1527	170
0	2226114	1528	129
0	2227346	1529	91
0	2228585	1530	113
0	2229716	1531	120
0	2231202	1532	137
0	2232756	1533	149
0	2234368	1534	153
0	2236103	1535	176
0	2237621	1536	145
0	2239207	1537	151
0	2240397	1538	119
0	2241939	1539	155
0	2243167	1540	140
0	2244328	1541	122
0	2245852	1542	143
0	2247308	1543	149
0	2248668	1544	135
0	2250311	1545	160
0	2251879	1546	145
0	2253088	1547	126
0	2254715	1548	152
0	2255964	1549	104
0	2257494	1550	136
0	2258949	1551	154
0	2260412	1552	138
0	2261959	1553	156
0	2263549	1554	157
0	2264946	1555	126
0	2266454	1556	141
0	2267799	1557	124
0	2269063	1558	125
0	2270395	1559	129
0	2271614	1560	111
0	2272868	1561	117
0	2274203	1562	134
0	2275468	1563	124
0	2277060	1564	137
0	2278556	1565	149
0	2280006	1566	129
0	2281678	1567	183
0	2283146	1568	137
0	2284513	1569	114
0	2286218	1570	159
0	2287836	1571	163
0	2289443	1572	162
0	2290730	1573	112
0	2292292	1574	161
0	2293717	1575	124
0	2295208	1576	150
0	2296470	1577	107
0	2298396	1578	181
0	2299787	1579	128
0	2301264	1580	137
0	2302943	1581	182
0	2304666	1582	150
0	2306199	1583	166
0	2307798	1584	146
0	2309210	1585	155
0	2311031	1586	162
0	2312828	1587	192
0	2314434	1588	159
0	2315950	1589	139
0	2317720	1590	158
0	2319151	1591	148
0	2320481	1592	145
0	2322074	1593	166
0	2323749	1594	164
0	2325360	1595	160
0	2327142	1596	187
0	2328511	1597	142
0	2329853	1598	109
0	2331223	1599	147
0	2332838	1600	149
0	2334202	1601	131
0	2335392	1602	117
0	2336587	1603	126
0	2337817	1604	107
0	2339348	1605	142
0	2340813	1606	152
0	2342393	1607	157
0	2344046	1608	156
0	2345224	1609	99
0	2346290	1610	106
0	2347555	1611	116
0	2349107	1612	161
0	2350475	1613	133
0	2351866	1614	128
0	2353516	1615	149