version 3
run SimulationTime-277-20240108-13:22:38-9592
attr configname SimulationTime
attr datetime 20240108-13:22:38
attr datetimef 20240108-132238
attr experiment SimulationTime
attr inifile omnetpp.ini
attr iterationvars ""
attr iterationvarsd ""
attr iterationvarsf ""
attr measurement ""
attr network System
attr processid 9592
attr repetition 277
attr replication #277
attr resultdir results
attr runnumber 277
attr seedset 277
config **.cpu.rate 1000
config **.hd.rateProcessing 250
config **.webServer.web_server_rate 100
config **.p1 0.35
config **.p2 0.40
config network System
config num-rngs 4
config **.cpu.rng-0 0
config **.cpu.rng-1 1
config **.hd.rng-0 2
config **.webServer.rng-0 3
config repeat 500
config seed-set 277
config sim-time-limit 10000s
config **.client.numClients 40

vector 0 System.server.cpu requestCounterStat:vector ETV
attr recordingmode vector
attr source requestCounter
vector 1 System.server.hd utilizationHdStat:vector ETV
attr recordingmode vector
attr source utilizationHd
vector 2 System.server.cpu utilizationCpuStat:vector ETV
attr recordingmode vector
attr source utilizationCpu
vector 3 System.webServer utilizationWsStat:vector ETV
attr recordingmode vector
attr source utilizationWs
0	1411	1	126
0	2851	2	137
0	4316	3	128
0	5983	4	158
0	7518	5	142
0	9074	6	153
0	10716	7	159
0	12358	8	157
0	13690	9	137
0	15229	10	131
0	16482	11	120
0	17982	12	169
0	19445	13	136
0	20781	14	125
0	22271	15	133
0	23448	16	104
0	24735	17	130
0	26146	18	152
0	27899	19	170
0	29387	20	144
0	30708	21	120
0	32488	22	175
0	33909	23	130
0	35365	24	145
0	36420	25	94
0	38043	26	154
0	39548	27	138
0	40917	28	142
0	42466	29	144
0	44123	30	159
0	46053	31	187
0	47171	32	95
0	48900	33	174
0	50600	34	147
0	51800	35	113
0	53100	36	125
0	54456	37	129
0	55880	38	161
0	57146	39	121
0	58654	40	152
0	60160	41	145
0	61592	42	139
0	62617	43	92
0	64003	44	123
0	65434	45	140
0	66915	46	124
0	68340	47	112
0	69856	48	135
0	71619	49	160
0	73018	50	137
0	74476	51	151
0	75869	52	148
0	77522	53	164
0	78800	54	119
0	80398	55	147
0	81943	56	150
0	83524	57	166
0	85193	58	172
0	86772	59	148
0	88117	60	129
0	89641	61	159
0	91326	62	158
0	92776	63	131
0	94053	64	132
0	95565	65	161
0	97022	66	152
0	98599	67	166
0	100386	68	176
0	101970	69	165
0	103548	70	166
0	104932	71	137
0	106364	72	137
0	107516	73	101
0	108852	74	125
0	110452	75	153
0	112090	76	155
0	113577	77	146
0	115153	78	169
0	116563	79	143
0	118053	80	154
0	119291	81	123
0	120588	82	116
0	121865	83	138
0	123163	84	121
0	124750	85	158
0	126282	86	145
0	127272	87	79
0	128742	88	141
0	130050	89	123
0	131293	90	129
0	132620	91	118
0	134251	92	162
0	135779	93	153
0	137233	94	137
0	138853	95	175
0	140694	96	186
0	142257	97	148
0	143694	98	136
0	144895	99	108
0	146422	100	151
0	147954	101	171
0	149099	102	118
0	150283	103	109
0	151531	104	119
0	153101	105	147
0	154844	106	160
0	156400	107	163
0	157956	108	129
0	159492	109	141
0	160799	110	127
0	162336	111	158
0	164052	112	159
0	165691	113	148
0	167223	114	139
0	168393	115	93
0	170255	116	191
0	171867	117	153
0	173379	118	135
0	174884	119	138
0	176360	120	132
0	177829	121	152
0	178995	122	109
0	180597	123	141
0	182213	124	145
0	183281	125	97
0	184686	126	136
0	185995	127	132
0	187553	128	151
0	189110	129	184
0	190005	130	81
0	191398	131	120
0	193018	132	167
0	194607	133	144
0	196251	134	131
0	197745	135	157
0	199230	136	114
0	201028	137	179
0	202009	138	80
0	203507	139	135
0	204880	140	131
0	206404	141	149
0	207567	142	106
0	209130	143	138
0	210764	144	145
0	212383	145	156
0	214208	146	186
0	215530	147	113
0	217016	148	147
0	218693	149	140
0	220166	150	137
0	221839	151	178
0	223287	152	141
0	224652	153	146
0	226236	154	149
0	227395	155	104
0	228822	156	134
0	230521	157	170
0	232066	158	168
0	233479	159	124
0	235007	160	144
0	236488	161	164
0	237936	162	123
0	239617	163	170
0	241240	164	162
0	242652	165	145
0	243900	166	117
0	245484	167	159
0	247102	168	147
0	248886	169	177
0	250193	170	123
0	251407	171	129
0	253091	172	143
0	254867	173	173
0	256294	174	146
0	258015	175	184
0	259482	176	144
0	261076	177	161
0	262606	178	157
0	263969	179	148
0	265085	180	86
0	266393	181	125
0	267982	182	140
0	269421	183	132
0	271244	184	182
0	272532	185	123
0	274388	186	175
0	276002	187	167
0	277514	188	147
0	278995	189	134
0	280975	190	188
0	282081	191	107
0	283250	192	118
0	284435	193	106
0	285778	194	106
0	287034	195	117
0	288647	196	154
0	290012	197	132
0	291600	198	157
0	292520	199	87
0	294143	200	169
0	295621	201	139
0	296980	202	132
0	298337	203	126
0	299635	204	135
0	301198	205	154
0	302573	206	138
0	303774	207	116
0	305211	208	130
0	306565	209	127
0	308155	210	172
0	309471	211	129
0	310476	212	104
0	311760	213	127
0	313029	214	128
0	314407	215	151
0	315918	216	146
0	317315	217	136
0	318827	218	135
0	320216	219	144
0	321679	220	153
0	323087	221	161
0	324885	222	203
0	326412	223	154
0	328079	224	170
0	329343	225	115
0	330650	226	140
0	332371	227	190
0	333710	228	112
0	335113	229	130
0	336826	230	159
0	338038	231	107
0	339784	232	165
0	341397	233	154
0	342860	234	136
0	344385	235	132
0	345772	236	138
0	347190	237	143
0	348399	238	100
0	350137	239	171
0	351572	240	149
0	352914	241	119
0	354631	242	182
0	355628	243	94
0	357227	244	162
0	358901	245	181
0	360340	246	160
0	361775	247	132
0	363815	248	203
0	365181	249	139
0	366791	250	142
0	367947	251	109
0	369505	252	167
0	371097	253	169
0	372592	254	150
0	374033	255	140
0	375235	256	101
0	376738	257	130
0	377931	258	106
0	379316	259	132
0	380973	260	165
0	382466	261	144
0	383797	262	110
0	385376	263	158
0	386817	264	132
0	388374	265	152
0	390062	266	151
0	391327	267	120
0	392429	268	103
0	393697	269	121
0	395268	270	149
0	396792	271	151
0	398648	272	187
0	400148	273	135
0	401687	274	144
0	402962	275	118
0	404215	276	132
0	405693	277	127
0	406871	278	111
0	408368	279	148
0	409690	280	118
0	411000	281	127
0	412410	282	143
0	413434	283	97
0	414775	284	112
0	416330	285	170
0	418044	286	173
0	419554	287	145
0	420869	288	122
0	422203	289	141
0	423707	290	154
0	424936	291	116
0	426489	292	132
0	427869	293	141
0	429089	294	127
0	430239	295	109
0	431875	296	161
0	433257	297	127
0	434509	298	111
0	435820	299	132
0	437108	300	112
0	438414	301	139
0	439874	302	143
0	441708	303	169
0	443221	304	140
0	444772	305	126
0	446313	306	144
0	447892	307	160
0	449681	308	166
0	451025	309	145
0	452370	310	107
0	453694	311	119
0	455096	312	137
0	456541	313	140
0	457820	314	106
0	459147	315	134
0	460624	316	160
0	462330	317	155
0	464370	318	201
0	465717	319	126
0	467129	320	126
0	468167	321	83
0	469641	322	147
0	471216	323	142
0	472586	324	113
0	474052	325	139
0	475400	326	125
0	476993	327	140
0	478570	328	152
0	479986	329	143
0	481457	330	147
0	482710	331	102
0	484277	332	144
0	486023	333	155
0	487324	334	130
0	488850	335	137
0	490150	336	115
0	491511	337	134
0	493130	338	158
0	494556	339	139
0	496113	340	143
0	498141	341	201
0	499873	342	165
0	501483	343	171
0	502915	344	141
0	504853	345	199
0	506754	346	228
0	507908	347	103
0	509298	348	125
0	510865	349	156
0	512388	350	141
0	514092	351	167
0	515788	352	151
0	517154	353	125
0	518306	354	99
0	519630	355	121
0	520922	356	119
0	522761	357	196
0	524544	358	184
0	525828	359	119
0	527140	360	128
0	528505	361	120
0	529675	362	95
0	531132	363	132
0	532578	364	131
0	534363	365	170
0	535613	366	93
0	537270	367	166
0	538825	368	160
0	539989	369	113
0	541181	370	128
0	542770	371	122
0	544284	372	177
0	545587	373	130
0	546926	374	126
0	548113	375	90
0	550022	376	184
0	551333	377	110
0	552738	378	128
0	553992	379	119
0	555835	380	161
0	557453	381	151
0	559191	382	175
0	560762	383	154
0	562603	384	192
0	563884	385	126
0	565174	386	117
0	566845	387	152
0	568185	388	121
0	569867	389	177
0	571194	390	137
0	572659	391	156
0	573968	392	108
0	575548	393	153
0	577071	394	126
0	578136	395	104
0	579836	396	191
0	581643	397	200
0	582902	398	118
0	584647	399	180
0	586102	400	145
0	587477	401	132
0	589165	402	155
0	590556	403	130
0	591986	404	135
0	593332	405	119
0	594533	406	100
0	596338	407	168
0	597530	408	101
0	599027	409	142
0	600355	410	116
0	601817	411	145
0	603478	412	164
0	604719	413	132
0	606283	414	145
0	607781	415	131
0	609334	416	130
0	610773	417	144
0	612437	418	145
0	613832	419	130
0	615126	420	118
0	616541	421	150
0	617641	422	97
0	619292	423	150
0	620912	424	165
0	622550	425	163
0	623809	426	110
0	625267	427	143
0	626597	428	133
0	628002	429	150
0	629352	430	142
0	630561	431	112
0	632350	432	186
0	633775	433	134
0	635219	434	129
0	636909	435	179
0	638527	436	149
0	640126	437	162
0	641482	438	119
0	643107	439	144
0	644621	440	142
0	645925	441	131
0	647455	442	145
0	648966	443	154
0	650249	444	124
0	651805	445	147
0	653332	446	132
0	654865	447	158
0	656052	448	106
0	657371	449	118
0	658784	450	123
0	660398	451	155
0	661705	452	118
0	663160	453	144
0	664374	454	113
0	665466	455	91
0	666917	456	148
0	668451	457	151
0	669925	458	149
0	671295	459	129
0	672883	460	168
0	674087	461	91
0	675645	462	161
0	677203	463	151
0	678694	464	138
0	680404	465	155
0	681797	466	126
0	683268	467	136
0	684842	468	147
0	686441	469	178
0	687814	470	151
0	689273	471	136
0	690644	472	140
0	692092	473	131
0	693753	474	172
0	695274	475	142
0	696954	476	175
0	698224	477	111
0	699540	478	139
0	701168	479	169
0	702562	480	134
0	703912	481	151
0	705569	482	146
0	707172	483	148
0	708709	484	152
0	709831	485	87
0	711283	486	135
0	712730	487	120
0	714064	488	119
0	715473	489	140
0	716670	490	101
0	718317	491	156
0	719528	492	106
0	720957	493	134
0	722573	494	155
0	724198	495	176
0	725744	496	145
0	727584	497	207
0	729152	498	147
0	730811	499	150
0	732052	500	113
0	733667	501	160
0	735432	502	190
0	737038	503	167
0	738399	504	136
0	740073	505	175
0	741432	506	130
0	742933	507	138
0	744311	508	129
0	745977	509	153
0	747477	510	142
0	748846	511	130
0	750898	512	211
0	752357	513	126
0	753671	514	131
0	755093	515	131
0	756410	516	112
0	757861	517	134
0	759544	518	152
0	760897	519	126
0	762397	520	144
0	763475	521	89
0	765103	522	161
0	766045	523	85
0	767493	524	149
0	768769	525	113
0	770331	526	153
0	771714	527	140
0	773229	528	154
0	774988	529	164
0	776413	530	137
0	778115	531	159
0	779561	532	153
0	780843	533	125
0	781888	534	90
0	783278	535	113
0	784662	536	137
0	786212	537	153
0	787831	538	150
0	789395	539	165
0	791182	540	183
0	792269	541	106
0	794167	542	183
0	795540	543	136
0	796999	544	136
0	798460	545	146
0	799667	546	126
0	801049	547	127
0	802325	548	105
0	803697	549	109
0	804977	550	128
0	806242	551	128
0	807808	552	147
0	809124	553	113
0	810971	554	190
0	812345	555	123
0	813937	556	151
0	815307	557	141
0	816732	558	132
0	818124	559	145
0	819466	560	128
0	820742	561	115
0	822411	562	158
0	823687	563	111
0	825198	564	146
0	826706	565	129
0	827870	566	111
0	829327	567	140
0	830868	568	150
0	832370	569	155
0	833862	570	120
0	835435	571	156
0	836983	572	153
0	838458	573	122
0	840136	574	175
0	841593	575	138
0	843024	576	132
0	844118	577	107
0	845544	578	129
0	846808	579	139
0	848255	580	153
0	849529	581	119
0	850667	582	115
0	852005	583	135
0	853520	584	178
0	854970	585	143
0	856120	586	107
0	857557	587	128
0	859180	588	186
0	860822	589	155
0	862607	590	187
0	864125	591	151
0	865733	592	173
0	867037	593	125
0	868488	594	146
0	870078	595	151
0	871911	596	184
0	873146	597	114
0	874390	598	105
0	875803	599	148
0	877491	600	150
0	879301	601	169
0	880799	602	131
0	882386	603	162
0	884083	604	160
0	885620	605	144
0	887029	606	136
0	888605	607	141
0	890299	608	151
0	891943	609	165
0	893431	610	156
0	894630	611	118
0	895679	612	92
0	897205	613	155
0	898702	614	130
0	900065	615	130
0	901862	616	168
0	903282	617	151
0	904485	618	108
0	905865	619	143
0	907108	620	117
0	908625	621	146
0	909865	622	99
0	911335	623	139
0	913161	624	191
0	914766	625	160
0	915986	626	123
0	917405	627	142
0	918945	628	145
0	920382	629	98
0	921870	630	140
0	923090	631	113
0	924736	632	151
0	925974	633	113
0	927674	634	157
0	929532	635	185
0	930996	636	129
0	932398	637	135
0	933911	638	146
0	935270	639	148
0	936576	640	122
0	938219	641	150
0	940001	642	147
0	941571	643	145
0	943017	644	129
0	944650	645	160
0	946484	646	171
0	948020	647	147
0	949591	648	150
0	951081	649	147
0	952585	650	166
0	953974	651	138
0	955318	652	143
0	956629	653	126
0	958045	654	137
0	959540	655	156
0	961020	656	141
0	962563	657	140
0	963673	658	91
0	964961	659	109
0	966062	660	103
0	967464	661	127
0	968977	662	152
0	970126	663	110
0	971334	664	109
0	972973	665	168
0	974440	666	126
0	976160	667	179
0	977428	668	117
0	978663	669	106
0	979984	670	115
0	981383	671	126
0	982879	672	151
0	984325	673	115
0	985546	674	112
0	986965	675	140
0	988341	676	123
0	990100	677	170
0	991467	678	126
0	993169	679	169
0	994522	680	103
0	995804	681	115
0	997410	682	157
0	998765	683	130
0	1000363	684	155
0	1001956	685	166
0	1003653	686	164
0	1005191	687	153
0	1006642	688	138
0	1008214	689	141
0	1009409	690	117
0	1010631	691	103
0	1012121	692	133
0	1013720	693	152
0	1015288	694	173
0	1016759	695	134
0	1018421	696	175
0	1019739	697	115
0	1021457	698	175
0	1022735	699	111
0	1023829	700	90
0	1025056	701	134
0	1026469	702	124
0	1027936	703	134
0	1029421	704	148
0	1030837	705	123
0	1031981	706	99
0	1033584	707	162
0	1035096	708	149
0	1036741	709	154
0	1038311	710	146
0	1039673	711	129
0	1041577	712	195
0	1043163	713	143
0	1044488	714	138
0	1046004	715	147
0	1047544	716	143
0	1049322	717	173
0	1050718	718	135
0	1052129	719	126
0	1053374	720	119
0	1054808	721	139
0	1056153	722	128
0	1057821	723	145
0	1059539	724	181
0	1061231	725	167
0	1062818	726	166
0	1063928	727	115
0	1065316	728	121
0	1066802	729	155
0	1068493	730	183
0	1069934	731	142
0	1071607	732	160
0	1072908	733	112
0	1074272	734	129
0	1075700	735	139
0	1077531	736	172
0	1078919	737	143
0	1080347	738	147
0	1081969	739	165
0	1083335	740	120
0	1084759	741	129
0	1086298	742	154
0	1087861	743	148
0	1089445	744	147
0	1090916	745	146
0	1092102	746	119
0	1093544	747	143
0	1095043	748	156
0	1096419	749	143
0	1097848	750	135
0	1099322	751	133
0	1100820	752	155
0	1102326	753	153
0	1103995	754	160
0	1105299	755	127
0	1106618	756	132
0	1108354	757	175
0	1109675	758	118
0	1111109	759	131
0	1112873	760	172
0	1114325	761	145
0	1116047	762	175
0	1117358	763	104
0	1118878	764	155
0	1120079	765	100
0	1121579	766	137
0	1123115	767	161
0	1124724	768	160
0	1126204	769	121
0	1127491	770	121
0	1128898	771	140
0	1130250	772	143
0	1131447	773	100
0	1133120	774	168
0	1134351	775	110
0	1136065	776	179
0	1137603	777	151
0	1139099	778	145
0	1140711	779	149
0	1141996	780	111
0	1143490	781	161
0	1144782	782	119
0	1146372	783	127
0	1147923	784	166
0	1148999	785	89
0	1150240	786	86
0	1151826	787	165
0	1153459	788	148
0	1154839	789	139
0	1156265	790	140
0	1157737	791	157
0	1159098	792	132
0	1160321	793	104
0	1161689	794	131
0	1163217	795	135
0	1164716	796	142
0	1166242	797	141
0	1167456	798	107
0	1168951	799	144
0	1170449	800	156
0	1171925	801	133
0	1173269	802	131
0	1174797	803	133
0	1176189	804	139
0	1177718	805	144
0	1179136	806	125
0	1180686	807	157
0	1182129	808	140
0	1183347	809	111
0	1184775	810	120
0	1186308	811	158
0	1187906	812	147
0	1189370	813	125
0	1191028	814	171
0	1192445	815	140
0	1193802	816	146
0	1195487	817	164
0	1196793	818	145
0	1198474	819	148
0	1200416	820	222
0	1201944	821	141
0	1203520	822	137
0	1205048	823	153
0	1206325	824	106
0	1207594	825	128
0	1209254	826	183
0	1210828	827	151
0	1212578	828	175
0	1214201	829	154
0	1215440	830	141
0	1216654	831	107
0	1218339	832	172
0	1219690	833	118
0	1221162	834	145
0	1222649	835	132
0	1224329	836	173
0	1225649	837	119
0	1227136	838	158
0	1229032	839	189
0	1230402	840	140
0	1231956	841	131
0	1233624	842	159
0	1235317	843	158
0	1236549	844	115
0	1237926	845	124
0	1239045	846	106
0	1240820	847	162
0	1242219	848	142
0	1243973	849	173
0	1245561	850	150
0	1247028	851	138
0	1248399	852	132
0	1250237	853	177
0	1251679	854	141
0	1252870	855	124
0	1254241	856	138
0	1255569	857	129
0	1256911	858	121
0	1258448	859	144
0	1260029	860	159
0	1261570	861	138
0	1262820	862	107
0	1264214	863	127
0	1265769	864	150
0	1267372	865	126
0	1269123	866	150
0	1270564	867	124
0	1272354	868	185
0	1273998	869	169
0	1275783	870	165
0	1277093	871	115
0	1278391	872	109
0	1279623	873	111
0	1281072	874	124
0	1282424	875	125
0	1283740	876	117
0	1285271	877	154
0	1286926	878	150
0	1288513	879	144
0	1289782	880	121
0	1291405	881	172
0	1292993	882	167
0	1294772	883	174
0	1296219	884	146
0	1297801	885	147
0	1299373	886	137
0	1300817	887	145
0	1301998	888	108
0	1303413	889	144
0	1304964	890	165
0	1306145	891	100
0	1307101	892	93
0	1308570	893	146
0	1310048	894	147
0	1311604	895	133
0	1312886	896	119
0	1314201	897	122
0	1315509	898	133
0	1316989	899	129
0	1318169	900	108
0	1319480	901	122
0	1320949	902	140
0	1322476	903	170
0	1324073	904	158
0	1325388	905	108
0	1326877	906	148
0	1328513	907	157
0	1330200	908	172
0	1331683	909	144
0	1333315	910	154
0	1334498	911	100
0	1336053	912	146
0	1337251	913	123
0	1338672	914	140
0	1340221	915	152
0	1341324	916	114
0	1343146	917	171
0	1344660	918	135
0	1346177	919	142
0	1347852	920	163
0	1348981	921	96
0	1350264	922	126
0	1351797	923	148
0	1353481	924	189
0	1354886	925	136
0	1356286	926	135
0	1357843	927	154
0	1359109	928	113
0	1360843	929	189
0	1362131	930	120
0	1363234	931	110
0	1364633	932	138
0	1366288	933	168
0	1367512	934	119
0	1369231	935	168
0	1370552	936	110
0	1371896	937	131
0	1373269	938	128
0	1374670	939	134
0	1376168	940	150
0	1377566	941	123
0	1379073	942	136
0	1380384	943	132
0	1382187	944	188
0	1383491	945	127
0	1384806	946	134
0	1386218	947	119
0	1387758	948	167
0	1389332	949	165
0	1390661	950	113
0	1392333	951	169
0	1393815	952	127
0	1395488	953	152
0	1396950	954	135
0	1398594	955	149
0	1399683	956	98
0	1401405	957	189
0	1403004	958	156
0	1404372	959	143
0	1405625	960	109
0	1407067	961	149
0	1408430	962	148
0	1410057	963	176
0	1411497	964	127
0	1413264	965	174
0	1414457	966	102
0	1416025	967	143
0	1417421	968	145
0	1418656	969	104
0	1420212	970	146
0	1421674	971	125
0	1422775	972	112
0	1424304	973	148
0	1425743	974	126
0	1427254	975	136
0	1428582	976	99
0	1430024	977	149
0	1431640	978	151
0	1433362	979	149
0	1434862	980	146
0	1436239	981	132
0	1437795	982	135
0	1439069	983	111
0	1440665	984	163
0	1442368	985	170
0	1443863	986	134
0	1445577	987	173
0	1447066	988	154
0	1448133	989	90
0	1449667	990	130
0	1451388	991	178
0	1452756	992	119
0	1454191	993	134
0	1455588	994	108
0	1456969	995	116
0	1458602	996	176
0	1460212	997	159
0	1461651	998	134
0	1463236	999	156
0	1464840	1000	164
0	1466263	1001	140
0	1467569	1002	129
0	1468771	1003	99
0	1470294	1004	154
0	1471266	1005	91
0	1472699	1006	122
0	1474001	1007	139
0	1475329	1008	121
0	1476961	1009	173
0	1478235	1010	126
0	1479683	1011	141
0	1481117	1012	127
0	1482873	1013	177
0	1484567	1014	163
0	1486039	1015	133
0	1487450	1016	122
0	1489120	1017	183
0	1490933	1018	180
0	1492274	1019	104
0	1493428	1020	106
0	1494801	1021	128
0	1496790	1022	168
0	1498090	1023	121
0	1499520	1024	153
0	1501065	1025	142
0	1502254	1026	126
0	1503523	1027	134
0	1504860	1028	120
0	1506488	1029	167
0	1507575	1030	107
0	1509066	1031	130
0	1510355	1032	128
0	1511774	1033	132
0	1513117	1034	118
0	1514687	1035	155
0	1516121	1036	131
0	1517567	1037	157
0	1519116	1038	142
0	1520635	1039	164
0	1522090	1040	141
0	1523298	1041	113
0	1524933	1042	146
0	1526776	1043	180
0	1528086	1044	139
0	1529443	1045	116
0	1530840	1046	146
0	1532088	1047	113
0	1533858	1048	163
0	1535443	1049	156
0	1536947	1050	160
0	1538325	1051	127
0	1539663	1052	111
0	1541209	1053	133
0	1542919	1054	157
0	1544443	1055	157
0	1546064	1056	140
0	1547457	1057	132
0	1548752	1058	118
0	1550291	1059	126
0	1551711	1060	132
0	1553402	1061	194
0	1554849	1062	140
0	1556253	1063	139
0	1557541	1064	117
0	1558809	1065	121
0	1560526	1066	174
0	1561827	1067	122
0	1563120	1068	104
0	1564345	1069	110
0	1565659	1070	124
0	1567167	1071	147
0	1568254	1072	118
0	1569847	1073	156
0	1571323	1074	133
0	1572684	1075	140
0	1574118	1076	133
0	1575673	1077	150
0	1577125	1078	133
0	1578466	1079	136
0	1579768	1080	110
0	1581435	1081	164
0	1582873	1082	147
0	1584489	1083	151
0	1586097	1084	169
0	1587438	1085	118
0	1588464	1086	89
0	1589841	1087	138
0	1590922	1088	94
0	1592356	1089	151
0	1593567	1090	119
0	1594957	1091	159
0	1596124	1092	108
0	1597921	1093	176
0	1599381	1094	137
0	1600561	1095	119
0	1601812	1096	124
0	1603039	1097	126
0	1604619	1098	151
0	1606144	1099	160
0	1607879	1100	181
0	1609550	1101	150
0	1611101	1102	144
0	1612426	1103	132
0	1613806	1104	145
0	1615179	1105	132
0	1616464	1106	104
0	1618030	1107	159
0	1619257	1108	116
0	1620637	1109	127
0	1622333	1110	168
0	1623726	1111	128
0	1625092	1112	119
0	1626770	1113	167
0	1627943	1114	90
0	1629336	1115	138
0	1630925	1116	166
0	1632426	1117	134
0	1633864	1118	135
0	1635651	1119	162
0	1637210	1120	161
0	1638417	1121	94
0	1639831	1122	135
0	1641177	1123	143
0	1642514	1124	108
0	1643818	1125	117
0	1645268	1126	131
0	1646898	1127	151
0	1648516	1128	139
0	1649936	1129	137
0	1651352	1130	136
0	1652449	1131	110
0	1653715	1132	113
0	1655075	1133	113
0	1656129	1134	75
0	1657349	1135	113
0	1658669	1136	141
0	1660108	1137	142
0	1661644	1138	145
0	1663351	1139	166
0	1664685	1140	122
0	1666324	1141	178
0	1667762	1142	135
0	1669352	1143	157
0	1671188	1144	155
0	1672594	1145	131
0	1674240	1146	163
0	1675800	1147	175
0	1677243	1148	132
0	1678606	1149	118
0	1680515	1150	193
0	1681941	1151	131
0	1683257	1152	127
0	1685161	1153	205
0	1686663	1154	137
0	1688013	1155	117
0	1689363	1156	131
0	1691124	1157	166
0	1692659	1158	148
0	1693866	1159	102
0	1695364	1160	124
0	1696566	1161	99
0	1698060	1162	137
0	1699468	1163	149
0	1700996	1164	147
0	1702197	1165	98
0	1703452	1166	118
0	1704833	1167	134
0	1706052	1168	116
0	1707430	1169	131
0	1708822	1170	124
0	1710082	1171	117
0	1711499	1172	126
0	1712975	1173	135
0	1714437	1174	135
0	1716067	1175	163
0	1717514	1176	150
0	1718996	1177	129
0	1720762	1178	169
0	1722086	1179	121
0	1723550	1180	144
0	1724963	1181	146
0	1726177	1182	89
0	1727553	1183	117
0	1728920	1184	150
0	1730467	1185	148
0	1732193	1186	181
0	1733680	1187	148
0	1735299	1188	168
0	1736772	1189	116
0	1738517	1190	171
0	1739900	1191	128
0	1741249	1192	120
0	1742631	1193	137
0	1743911	1194	133
0	1745273	1195	127
0	1747139	1196	183
0	1748676	1197	136
0	1749910	1198	117
0	1751328	1199	151
0	1752675	1200	129
0	1754597	1201	209
0	1755986	1202	146
0	1757430	1203	135
0	1759069	1204	162
0	1760881	1205	175
0	1762604	1206	178
0	1763897	1207	126
0	1765118	1208	112
0	1766586	1209	145
0	1768015	1210	135
0	1769540	1211	158
0	1770821	1212	128
0	1772346	1213	140
0	1773789	1214	138
0	1775079	1215	119
0	1776430	1216	120
0	1777874	1217	129
0	1779445	1218	154
0	1781071	1219	159
0	1782510	1220	137
0	1783910	1221	109
0	1785414	1222	131
0	1786870	1223	143
0	1788282	1224	147
0	1789629	1225	118
0	1790941	1226	131
0	1792318	1227	144
0	1793677	1228	138
0	1794931	1229	109
0	1796130	1230	111
0	1797800	1231	169
0	1799713	1232	190
0	1801220	1233	154
0	1802759	1234	154
0	1804115	1235	135
0	1805735	1236	155
0	1807181	1237	125
0	1808375	1238	111
0	1809698	1239	114
0	1811263	1240	133
0	1812642	1241	124
0	1814091	1242	150
0	1815723	1243	137
0	1816866	1244	106
0	1818639	1245	156
0	1819882	1246	124
0	1821191	1247	122
0	1822271	1248	93
0	1823711	1249	145
0	1825616	1250	191
0	1827018	1251	135
0	1828495	1252	142
0	1829954	1253	128
0	1831081	1254	108
0	1832565	1255	159
0	1834101	1256	153
0	1835357	1257	107
0	1837129	1258	173
0	1838471	1259	113
0	1839934	1260	145
0	1841635	1261	180
0	1842867	1262	115
0	1844258	1263	116
0	1845953	1264	190
0	1847444	1265	154
0	1848920	1266	137
0	1850248	1267	121
0	1851862	1268	133
0	1853391	1269	138
0	1854853	1270	154
0	1856139	1271	127
0	1857386	1272	124
0	1859024	1273	157
0	1860503	1274	140
0	1862209	1275	173
0	1863789	1276	149
0	1865249	1277	131
0	1866936	1278	164
0	1868669	1279	190
0	1870716	1280	203
0	1872058	1281	111
0	1873222	1282	103
0	1874834	1283	159
0	1876531	1284	166
0	1877990	1285	136
0	1879105	1286	102
0	1880418	1287	126
0	1881496	1288	89
0	1882965	1289	148
0	1884267	1290	138
0	1885720	1291	144
0	1887499	1292	194
0	1889331	1293	165
0	1891150	1294	170
0	1892515	1295	130
0	1893990	1296	140
0	1895540	1297	159
0	1897082	1298	131
0	1898759	1299	172
0	1899982	1300	113
0	1901395	1301	144
0	1903062	1302	154
0	1904300	1303	123
0	1905331	1304	90
0	1907099	1305	165
0	1908895	1306	175
0	1910455	1307	153
0	1911624	1308	110
0	1913228	1309	161
0	1914661	1310	141
0	1915985	1311	115
0	1917300	1312	130
0	1918598	1313	123
0	1920228	1314	149
0	1921947	1315	184
0	1922949	1316	87
0	1924205	1317	117
0	1925709	1318	143
0	1927103	1319	149
0	1928880	1320	179
0	1930158	1321	135
0	1931714	1322	151
0	1933452	1323	197
0	1934726	1324	115
0	1936057	1325	138
0	1937806	1326	180
0	1939193	1327	142
0	1940771	1328	159
0	1941926	1329	122
0	1943235	1330	115
0	1944661	1331	133
0	1946178	1332	134
0	1947783	1333	140
0	1948966	1334	112
0	1950373	1335	118
0	1951750	1336	118
0	1952984	1337	97
0	1954335	1338	110
0	1955603	1339	127
0	1957132	1340	141
0	1958792	1341	153
0	1960125	1342	130
0	1961761	1343	151
0	1962879	1344	103
0	1964090	1345	120
0	1965350	1346	133
0	1966725	1347	120
0	1968104	1348	132
0	1969302	1349	111
0	1970752	1350	128
0	1972372	1351	149
0	1973864	1352	139
0	1975262	1353	137
0	1977068	1354	165
0	1978391	1355	118
0	1979454	1356	102
0	1981058	1357	165
0	1982204	1358	115
0	1983333	1359	94
0	1984714	1360	123
0	1986361	1361	164
0	1987853	1362	145
0	1989323	1363	143
0	1991162	1364	164
0	1992634	1365	131
0	1993876	1366	117
0	1995156	1367	123
0	1996506	1368	127
0	1997764	1369	109
0	1999462	1370	148
0	2000720	1371	107
0	2002233	1372	160
0	2003549	1373	133
0	2004896	1374	128
0	2006375	1375	156
0	2007711	1376	133
0	2009120	1377	134
0	2010989	1378	194
0	2012488	1379	150
0	2013985	1380	139
0	2015304	1381	126
0	2016879	1382	154
0	2018299	1383	133
0	2019638	1384	124
0	2021405	1385	172
0	2022996	1386	146
0	2024338	1387	125
0	2025867	1388	138
0	2027201	1389	121
0	2028389	1390	110
0	2029853	1391	131
0	2031229	1392	119
0	2032502	1393	112
0	2033642	1394	113
0	2035203	1395	148
0	2036509	1396	105
0	2037989	1397	127
0	2039143	1398	123
0	2040452	1399	116
0	2041806	1400	130
0	2043188	1401	111
0	2044485	1402	138
0	2045861	1403	135
0	2047494	1404	156
0	2049195	1405	164
0	2050717	1406	135
0	2051989	1407	109
0	2053588	1408	154
0	2054975	1409	134
0	2056287	1410	124
0	2057551	1411	113
0	2059049	1412	165
0	2060324	1413	132
0	2061713	1414	138
0	2063089	1415	113
0	2064766	1416	170
0	2066405	1417	166
0	2067952	1418	170
0	2069354	1419	129
0	2070951	1420	163
0	2072175	1421	103
0	2073725	1422	151
0	2075125	1423	139
0	2076344	1424	112
0	2077744	1425	143
0	2079476	1426	155
0	2080809	1427	132
0	2082302	1428	136
0	2083580	1429	111
0	2085388	1430	180
0	2086690	1431	107
0	2087754	1432	81
0	2089157	1433	142
0	2090442	1434	140
0	2091499	1435	88
0	2092822	1436	124
0	2094281	1437	136
0	2095917	1438	155
0	2097000	1439	98
0	2098156	1440	102
0	2099853	1441	178
0	2101230	1442	134
0	2102814	1443	153
0	2104227	1444	124
0	2105423	1445	107
0	2106843	1446	127
0	2108117	1447	141
0	2109415	1448	125
0	2111095	1449	161
0	2112477	1450	126
0	2114254	1451	174
0	2115892	1452	153
0	2117051	1453	114
0	2118604	1454	156
0	2119940	1455	133
0	2121600	1456	157
0	2123284	1457	157
0	2124305	1458	92
0	2125518	1459	116
0	2127089	1460	145
0	2128382	1461	132
0	2129670	1462	117
0	2131064	1463	123
0	2132185	1464	92
0	2133499	1465	121
0	2135064	1466	144
0	2136738	1467	171
0	2137997	1468	114
0	2139840	1469	196
0	2141111	1470	133
0	2142535	1471	111
0	2143733	1472	117
0	2145272	1473	150
0	2146698	1474	137
0	2148189	1475	160
0	2149908	1476	172
0	2151158	1477	117
0	2152956	1478	175
0	2154346	1479	113
0	2155880	1480	136
0	2157622	1481	177
0	2158537	1482	78
0	2160401	1483	189
0	2162093	1484	175
0	2163190	1485	96
0	2164780	1486	153
0	2166245	1487	138
0	2167872	1488	150
0	2169137	1489	120
0	2170567	1490	142
0	2172180	1491	172
0	2173611	1492	124
0	2175067	1493	131
0	2176640	1494	162
0	2178106	1495	137
0	2179581	1496	144
0	2181020	1497	152
0	2182624	1498	137
0	2184316	1499	161
0	2185647	1500	127
0	2186867	1501	131
0	2188333	1502	147
0	2189867	1503	135
0	2191491	1504	175
0	2193054	1505	144
0	2194422	1506	137
0	2195516	1507	107
0	2197180	1508	165
0	2198686	1509	143
0	2199820	1510	106
0	2200980	1511	89
0	2202400	1512	141
0	2203863	1513	144
0	2205504	1514	174
0	2206834	1515	127
0	2208241	1516	120
0	2209831	1517	141
0	2211118	1518	130
0	2212223	1519	88
0	2213591	1520	132
0	2215039	1521	141
0	2216351	1522	117
0	2217840	1523	140
0	2219649	1524	184
0	2221263	1525	175
0	2223241	1526	195
0	2224921	1527	157
0	2226166	1528	112
0	2227598	1529	137
0	2228952	1530	134
0	2230737	1531	178
0	2232133	1532	125
0	2233310	1533	106
0	2234764	1534	135
0	2236150	1535	127
0	2237914	1536	181
0	2239455	1537	144
0	2241192	1538	172
0	2242844	1539	169
0	2244060	1540	112
0	2245464	1541	133
0	2246988	1542	135
0	2248381	1543	130
0	2249789	1544	149
0	2251291	1545	149
0	2253026	1546	172
0	2254869	1547	170
0	2256306	1548	140
0	2257694	1549	117
0	2259042	1550	128
0	2260533	1551	142
0	2261971	1552	151
0	2263774	1553	178
0	2265666	1554	193
0	2267161	1555	130
0	2268957	1556	169
0	2270284	1557	124
0	2271818	1558	135
0	2273089	1559	104
0	2274337	1560	126
0	2275623	1561	127
0	2277121	1562	147
0	2278619	1563	135
0	2280242	1564	170
0	2281820	1565	167
0	2283102	1566	103
0	2284775	1567	186
0	2286334	1568	150
0	2288032	1569	175
0	2289813	1570	179
0	2291442	1571	144
0	2292946	1572	157
0	2294483	1573	174
0	2295711	1574	109
0	2297615	1575	171
0	2299568	1576	180
0	2301275	1577	182
0	2302462	1578	114
0	2304058	1579	155
0	2305578	1580	134
0	2306529	1581	66
0	2308222	1582	162
0	2310071	1583	182
0	2311555	1584	153
0	2312987	1585	137
0	2314527	1586	143
0	2316001	1587	135
0	2317749	1588	169
0	2319246	1589	142
0	2320571	1590	137
0	2321962	1591	124
0	2323814	1592	183
0	2325533	1593	168
0	2326832	1594	116
0	2328487	1595	156
0	2330281	1596	191
0	2331579	1597	117
0	2333326	1598	176
0	2334790	1599	121
0	2336201	1600	137
0	2337598	1601	130
0	2339085	1602	150
0	2340444	1603	128
0	2341765	1604	128
0	2343472	1605	156
0	2345255	1606	180
0	2347147	1607	187
0	2348610	1608	138
0	2350096	1609	139
0	2351721	1610	173
0	2352947	1611	99
0	2354416	1612	142
0	2356001	1613	150
0	2357535	1614	143
0	2359144	1615	156