version 3
run SimulationTime-149-20240107-16:16:44-21928
attr configname SimulationTime
attr datetime 20240107-16:16:44
attr datetimef 20240107-161644
attr experiment SimulationTime
attr inifile omnetpp.ini
attr iterationvars ""
attr iterationvarsd ""
attr iterationvarsf ""
attr measurement ""
attr network System
attr processid 21928
attr repetition 149
attr replication #149
attr resultdir results
attr runnumber 149
attr seedset 149
config **.cpu.rate 1000
config **.hd.rateProcessing 250
config **.webServer.web_server_rate 100
config **.p1 0.35
config **.p2 0.40
config network System
config num-rngs 4
config **.cpu.rng-0 0
config **.cpu.rng-1 1
config **.hd.rng-0 2
config **.webServer.rng-0 3
config repeat 500
config seed-set 149
config sim-time-limit 10000s
config **.client.numClients 40

vector 0 System.server.cpu requestCounterStat:vector ETV
attr recordingmode vector
attr source requestCounter
vector 1 System.server.hd utilizationHdStat:vector ETV
attr recordingmode vector
attr source utilizationHd
vector 2 System.server.cpu utilizationCpuStat:vector ETV
attr recordingmode vector
attr source utilizationCpu
vector 3 System.webServer utilizationWsStat:vector ETV
attr recordingmode vector
attr source utilizationWs
0	2032	1	207
0	3445	2	116
0	4540	3	108
0	5687	4	118
0	7426	5	150
0	8996	6	155
0	10294	7	131
0	11671	8	138
0	13124	9	138
0	14779	10	153
0	16195	11	135
0	17466	12	114
0	19008	13	129
0	20598	14	145
0	22285	15	164
0	23839	16	159
0	25372	17	152
0	26954	18	143
0	28317	19	106
0	29931	20	138
0	31326	21	134
0	32879	22	148
0	34817	23	197
0	36375	24	131
0	37822	25	136
0	39548	26	177
0	40878	27	129
0	42137	28	122
0	43542	29	112
0	45182	30	156
0	46726	31	151
0	48165	32	156
0	49592	33	142
0	51117	34	142
0	52756	35	168
0	54242	36	153
0	55552	37	125
0	57201	38	148
0	58688	39	142
0	59806	40	106
0	61066	41	115
0	62364	42	129
0	63921	43	160
0	65459	44	161
0	66729	45	121
0	68504	46	172
0	69984	47	155
0	71457	48	146
0	72942	49	138
0	74473	50	159
0	75925	51	165
0	77426	52	158
0	79095	53	182
0	80514	54	144
0	81865	55	118
0	83353	56	147
0	84834	57	134
0	85939	58	98
0	87434	59	148
0	89037	60	133
0	90480	61	146
0	91825	62	128
0	93388	63	150
0	95079	64	150
0	96567	65	151
0	97938	66	124
0	99337	67	128
0	100729	68	131
0	102110	69	116
0	103310	70	116
0	105137	71	196
0	106700	72	158
0	108437	73	178
0	110047	74	159
0	111323	75	111
0	112606	76	140
0	113749	77	134
0	115235	78	123
0	116656	79	154
0	118212	80	148
0	119814	81	155
0	121279	82	136
0	122884	83	166
0	124310	84	119
0	125585	85	122
0	127047	86	169
0	128630	87	168
0	129687	88	98
0	130795	89	99
0	132162	90	125
0	133705	91	138
0	135178	92	124
0	137030	93	193
0	138306	94	129
0	140000	95	149
0	141443	96	124
0	143022	97	146
0	144815	98	190
0	146203	99	127
0	147783	100	152
0	149455	101	165
0	151201	102	185
0	152925	103	171
0	154143	104	121
0	155615	105	125
0	157048	106	142
0	158652	107	157
0	159896	108	125
0	161353	109	136
0	162780	110	133
0	164389	111	146
0	165726	112	110
0	167205	113	154
0	168707	114	135
0	170037	115	109
0	171471	116	123
0	172695	117	111
0	174223	118	133
0	175982	119	172
0	177715	120	165
0	179034	121	118
0	180375	122	132
0	182090	123	178
0	183524	124	147
0	185345	125	168
0	186969	126	145
0	188198	127	130
0	189503	128	126
0	191107	129	147
0	192536	130	147
0	193724	131	135
0	195269	132	130
0	196931	133	169
0	198376	134	118
0	200115	135	196
0	201526	136	130
0	203116	137	147
0	204706	138	149
0	206039	139	116
0	207179	140	94
0	208743	141	161
0	210455	142	171
0	212114	143	164
0	213003	144	64
0	214286	145	126
0	215390	146	97
0	216769	147	118
0	218220	148	136
0	219973	149	182
0	221466	150	149
0	223113	151	172
0	224655	152	151
0	226418	153	180
0	227920	154	159
0	229333	155	132
0	230414	156	80
0	232015	157	144
0	233367	158	139
0	234664	159	112
0	236022	160	130
0	237170	161	113
0	238616	162	145
0	240006	163	141
0	241402	164	125
0	242846	165	129
0	244455	166	138
0	246007	167	153
0	247586	168	160
0	249159	169	168
0	250265	170	104
0	251576	171	106
0	253043	172	152
0	254711	173	153
0	255828	174	108
0	257595	175	192
0	258932	176	110
0	260467	177	150
0	261936	178	146
0	263223	179	116
0	264666	180	141
0	265852	181	95
0	267438	182	127
0	268775	183	128
0	270194	184	150
0	271306	185	107
0	272838	186	155
0	274562	187	165
0	276148	188	147
0	277875	189	180
0	279283	190	134
0	280909	191	167
0	282586	192	152
0	283892	193	129
0	285547	194	166
0	286867	195	137
0	288313	196	129
0	289742	197	138
0	291160	198	129
0	292746	199	145
0	294294	200	148
0	295437	201	110
0	297278	202	194
0	298635	203	132
0	300068	204	136
0	301498	205	153
0	302963	206	108
0	304879	207	189
0	306410	208	146
0	307834	209	127
0	309100	210	110
0	310819	211	162
0	312342	212	142
0	313700	213	123
0	314789	214	100
0	316101	215	127
0	317747	216	157
0	319015	217	117
0	320214	218	98
0	321880	219	173
0	323354	220	144
0	324858	221	149
0	326362	222	133
0	327779	223	112
0	329068	224	116
0	330910	225	187
0	332312	226	131
0	333778	227	135
0	335373	228	156
0	337297	229	191
0	338594	230	123
0	340200	231	145
0	341586	232	141
0	342933	233	144
0	344480	234	152
0	346178	235	163
0	347308	236	101
0	348977	237	174
0	350614	238	172
0	351972	239	127
0	353357	240	129
0	354725	241	133
0	356210	242	118
0	357650	243	145
0	359313	244	166
0	360825	245	147
0	362330	246	134
0	363952	247	159
0	365536	248	161
0	367345	249	180
0	369196	250	199
0	370601	251	142
0	371915	252	139
0	373105	253	111
0	374475	254	143
0	376036	255	154
0	377146	256	127
0	378309	257	116
0	379417	258	97
0	380807	259	117
0	382420	260	157
0	383888	261	157
0	385140	262	97
0	386196	263	103
0	387769	264	154
0	389397	265	153
0	390774	266	128
0	391990	267	129
0	393395	268	144
0	394981	269	141
0	396411	270	146
0	398045	271	167
0	399488	272	144
0	401133	273	152
0	402217	274	109
0	403573	275	125
0	404981	276	123
0	406720	277	168
0	408251	278	142
0	409667	279	133
0	411278	280	157
0	412931	281	166
0	414428	282	160
0	415551	283	90
0	417049	284	143
0	418424	285	144
0	420082	286	147
0	421169	287	86
0	422552	288	130
0	423963	289	118
0	425190	290	109
0	426402	291	109
0	427960	292	157
0	429443	293	122
0	430925	294	137
0	432228	295	120
0	433692	296	135
0	435052	297	129
0	436585	298	156
0	438293	299	175
0	440109	300	188
0	441570	301	146
0	443018	302	121
0	444711	303	180
0	446085	304	137
0	447478	305	154
0	448956	306	157
0	450342	307	133
0	451764	308	137
0	452912	309	107
0	454211	310	129
0	455497	311	113
0	456801	312	123
0	458161	313	129
0	459453	314	129
0	460661	315	113
0	462505	316	169
0	463774	317	126
0	465740	318	185
0	467001	319	116
0	468613	320	168
0	470161	321	157
0	471893	322	157
0	473081	323	97
0	474630	324	144
0	476041	325	134
0	477477	326	137
0	478922	327	140
0	480282	328	111
0	481460	329	117
0	482750	330	126
0	484235	331	156
0	485953	332	171
0	487329	333	133
0	489181	334	195
0	490662	335	144
0	492205	336	148
0	493633	337	129
0	495013	338	137
0	496457	339	141
0	497900	340	129
0	499665	341	160
0	501115	342	143
0	502588	343	130
0	504238	344	171
0	506021	345	170
0	507550	346	130
0	509212	347	167
0	510941	348	172
0	512483	349	137
0	514077	350	134
0	515283	351	125
0	516686	352	138
0	518088	353	119
0	519473	354	144
0	521153	355	181
0	522792	356	154
0	524412	357	169
0	525909	358	136
0	527464	359	154
0	528721	360	123
0	530368	361	140
0	532180	362	183
0	533514	363	131
0	534984	364	139
0	536427	365	142
0	537993	366	159
0	539377	367	143
0	540747	368	125
0	542465	369	171
0	544151	370	150
0	545710	371	158
0	547168	372	135
0	548732	373	145
0	550356	374	157
0	551655	375	110
0	553217	376	159
0	554779	377	155
0	556286	378	150
0	557780	379	159
0	559218	380	138
0	560390	381	105
0	561657	382	124
0	563354	383	162
0	564855	384	152
0	566200	385	134
0	567537	386	128
0	568866	387	114
0	570477	388	162
0	571584	389	94
0	572877	390	115
0	574169	391	129
0	575504	392	114
0	576859	393	130
0	578298	394	140
0	579715	395	138
0	581003	396	115
0	582469	397	125
0	584049	398	161
0	585266	399	120
0	586765	400	135
0	588802	401	214
0	589967	402	88
0	591387	403	115
0	593191	404	183
0	594729	405	163
0	596177	406	145
0	597593	407	125
0	599178	408	132
0	600248	409	85
0	601632	410	126
0	602812	411	105
0	604140	412	127
0	605695	413	144
0	607171	414	127
0	608388	415	110
0	609798	416	141
0	611599	417	192
0	613179	418	159
0	614632	419	148
0	616127	420	143
0	617674	421	148
0	619494	422	167
0	621279	423	174
0	622380	424	92
0	623590	425	129
0	624907	426	102
0	626180	427	122
0	627608	428	151
0	629279	429	176
0	630981	430	154
0	632294	431	122
0	633945	432	166
0	635615	433	167
0	637200	434	152
0	638586	435	131
0	640002	436	141
0	641295	437	132
0	642681	438	123
0	644194	439	158
0	645555	440	125
0	647137	441	155
0	648259	442	109
0	649490	443	124
0	650806	444	137
0	652203	445	124
0	654027	446	181
0	655926	447	190
0	657419	448	128
0	658802	449	130
0	660302	450	150
0	661701	451	124
0	663154	452	132
0	664358	453	109
0	665572	454	111
0	666964	455	149
0	668525	456	158
0	670167	457	139
0	671486	458	114
0	673241	459	168
0	674731	460	158
0	676473	461	169
0	678024	462	144
0	679135	463	104
0	680727	464	159
0	682225	465	147
0	683451	466	111
0	684470	467	94
0	685940	468	135
0	687223	469	124
0	688802	470	151
0	690234	471	129
0	691532	472	127
0	692749	473	116
0	694248	474	170
0	696078	475	171
0	697743	476	168
0	699300	477	142
0	700450	478	109
0	701993	479	174
0	703462	480	143
0	705089	481	154
0	706341	482	113
0	707775	483	131
0	709219	484	137
0	710708	485	156
0	712415	486	154
0	713999	487	157
0	715247	488	105
0	716938	489	166
0	717906	490	88
0	719220	491	111
0	720581	492	136
0	721838	493	118
0	723343	494	138
0	724656	495	138
0	726052	496	121
0	727543	497	136
0	729143	498	141
0	730979	499	199
0	732460	500	161
0	733846	501	143
0	735768	502	205
0	737156	503	119
0	738612	504	149
0	739929	505	120
0	741324	506	134
0	742829	507	152
0	744349	508	149
0	745903	509	167
0	747392	510	155
0	748731	511	122
0	749838	512	104
0	751352	513	141
0	752730	514	139
0	754007	515	112
0	755485	516	141
0	757030	517	158
0	758752	518	147
0	760278	519	155
0	761715	520	131
0	762936	521	124
0	764606	522	159
0	765900	523	127
0	767081	524	104
0	768553	525	151
0	770053	526	145
0	771236	527	112
0	772748	528	145
0	774690	529	201
0	775999	530	125
0	777441	531	127
0	779146	532	200
0	780828	533	181
0	782399	534	148
0	783790	535	140
0	785300	536	131
0	786640	537	115
0	787991	538	134
0	789036	539	104
0	790768	540	164
0	792450	541	153
0	794151	542	168
0	795911	543	199
0	797333	544	151
0	798447	545	99
0	799895	546	139
0	801330	547	142
0	802304	548	89
0	803454	549	103
0	804682	550	116
0	806206	551	131
0	807688	552	141
0	809151	553	142
0	810630	554	142
0	811696	555	99
0	813194	556	155
0	815060	557	191
0	816827	558	188
0	818179	559	115
0	819641	560	126
0	821356	561	178
0	822853	562	144
0	824498	563	160
0	825754	564	121
0	827227	565	154
0	828608	566	114
0	830154	567	155
0	831857	568	170
0	833614	569	180
0	835337	570	165
0	837220	571	200
0	838835	572	144
0	839886	573	102
0	841500	574	135
0	842923	575	138
0	844475	576	161
0	845697	577	127
0	847019	578	135
0	848732	579	178
0	850655	580	187
0	851930	581	118
0	853421	582	146
0	854921	583	155
0	856376	584	136
0	857609	585	116
0	858818	586	104
0	860109	587	110
0	861429	588	117
0	862546	589	102
0	864242	590	166
0	865941	591	170
0	867625	592	145
0	869025	593	133
0	870545	594	139
0	871599	595	97
0	872707	596	105
0	874033	597	123
0	875632	598	162
0	877238	599	161
0	878893	600	155
0	880333	601	155
0	882126	602	200
0	883197	603	92
0	884759	604	159
0	886152	605	118
0	887786	606	163
0	888937	607	116
0	890436	608	142
0	891836	609	121
0	893159	610	113
0	894505	611	121
0	895937	612	153
0	897371	613	129
0	898780	614	144
0	900286	615	151
0	902136	616	195
0	903492	617	133
0	904892	618	121
0	906325	619	124
0	907892	620	163
0	909848	621	189
0	911496	622	179
0	912931	623	154
0	914445	624	141
0	915541	625	87
0	917118	626	152
0	918506	627	137
0	920014	628	163
0	921605	629	164
0	923214	630	155
0	924614	631	145
0	926350	632	171
0	927433	633	92
0	928688	634	98
0	930293	635	144
0	931947	636	171
0	933339	637	119
0	934694	638	116
0	936473	639	182
0	938076	640	157
0	939677	641	154
0	940999	642	105
0	942309	643	123
0	943660	644	134
0	945199	645	152
0	946686	646	136
0	947736	647	83
0	949470	648	187
0	950723	649	136
0	952225	650	162
0	953689	651	135
0	955286	652	158
0	956952	653	169
0	958397	654	126
0	959985	655	159
0	961613	656	167
0	963065	657	137
0	964507	658	139
0	966083	659	165
0	967840	660	171
0	968966	661	107
0	970429	662	158
0	972100	663	174
0	973786	664	153
0	975234	665	139
0	976472	666	117
0	977820	667	143
0	979343	668	146
0	980830	669	142
0	982153	670	119
0	983667	671	133
0	985227	672	145
0	986700	673	160
0	988372	674	159
0	989983	675	164
0	991331	676	123
0	992895	677	153
0	994554	678	150
0	996023	679	146
0	997486	680	133
0	998391	681	80
0	1000021	682	171
0	1001802	683	160
0	1003413	684	148
0	1004826	685	126
0	1006271	686	146
0	1007672	687	138
0	1009138	688	131
0	1010750	689	147
0	1012503	690	165
0	1014044	691	148
0	1015573	692	140
0	1017103	693	159
0	1018406	694	110
0	1019711	695	116
0	1021516	696	172
0	1022833	697	112
0	1024320	698	136
0	1025618	699	121
0	1026967	700	119
0	1028049	701	99
0	1029590	702	156
0	1030953	703	130
0	1032285	704	129
0	1033576	705	126
0	1035137	706	154
0	1036765	707	159
0	1038026	708	120
0	1039307	709	124
0	1040964	710	155
0	1042775	711	158
0	1044163	712	141
0	1045752	713	172
0	1047072	714	121
0	1048434	715	115
0	1050185	716	160
0	1051790	717	154
0	1053069	718	94
0	1054433	719	125
0	1055903	720	128
0	1057191	721	123
0	1058571	722	121
0	1059959	723	123
0	1061615	724	165
0	1063403	725	175
0	1064743	726	125
0	1066157	727	119
0	1067792	728	160
0	1069580	729	155
0	1070792	730	108
0	1072254	731	143
0	1073626	732	125
0	1075282	733	163
0	1076787	734	152
0	1078641	735	177
0	1079845	736	119
0	1080941	737	107
0	1082234	738	130
0	1083643	739	106
0	1084872	740	109
0	1086400	741	145
0	1087881	742	134
0	1089335	743	143
0	1090787	744	129
0	1092120	745	122
0	1093776	746	171
0	1095127	747	136
0	1096684	748	156
0	1097910	749	99
0	1099379	750	153
0	1100911	751	149
0	1102487	752	155
0	1104132	753	158
0	1105708	754	167
0	1107326	755	153
0	1108582	756	125
0	1109962	757	137
0	1111569	758	166
0	1113042	759	152
0	1114387	760	135
0	1115925	761	143
0	1117556	762	154
0	1119236	763	165
0	1120479	764	114
0	1122027	765	149
0	1123405	766	119
0	1124984	767	166
0	1126479	768	138
0	1127665	769	119
0	1129059	770	148
0	1130353	771	117
0	1131816	772	154
0	1133711	773	210
0	1135436	774	160
0	1136943	775	134
0	1138388	776	150
0	1139524	777	115
0	1140921	778	146
0	1142397	779	135
0	1143927	780	140
0	1145611	781	155
0	1147134	782	138
0	1148425	783	114
0	1149691	784	119
0	1151506	785	186
0	1153227	786	184
0	1154868	787	146
0	1156127	788	108
0	1157687	789	165
0	1159753	790	210
0	1161285	791	137
0	1162756	792	130
0	1164426	793	183
0	1165713	794	102
0	1167123	795	139
0	1168725	796	145
0	1170373	797	179
0	1171947	798	149
0	1173374	799	148
0	1174675	800	135
0	1176079	801	127
0	1177602	802	148
0	1178947	803	140
0	1180601	804	139
0	1182317	805	185
0	1183807	806	139
0	1185343	807	165
0	1186850	808	130
0	1188149	809	102
0	1189493	810	128
0	1190948	811	146
0	1192682	812	167
0	1194209	813	146
0	1195962	814	178
0	1197488	815	157
0	1198825	816	126
0	1200249	817	129
0	1201556	818	122
0	1203016	819	151
0	1204690	820	148
0	1206364	821	171
0	1207805	822	142
0	1209193	823	133
0	1210429	824	105
0	1211806	825	124
0	1213195	826	136
0	1214636	827	140
0	1216393	828	176
0	1217710	829	124
0	1218961	830	121
0	1220515	831	141
0	1221477	832	81
0	1222743	833	127
0	1224186	834	148
0	1225346	835	117
0	1226825	836	144
0	1228216	837	126
0	1229626	838	123
0	1231082	839	145
0	1232496	840	144
0	1233895	841	152
0	1235151	842	109
0	1236327	843	109
0	1237994	844	150
0	1239031	845	96
0	1240630	846	138
0	1242324	847	155
0	1243500	848	95
0	1244936	849	133
0	1246234	850	126
0	1247812	851	155
0	1249457	852	152
0	1250785	853	127
0	1252286	854	146
0	1253911	855	152
0	1255143	856	117
0	1256902	857	188
0	1258644	858	165
0	1260150	859	157
0	1261627	860	155
0	1262705	861	83
0	1264550	862	184
0	1265944	863	135
0	1267295	864	122
0	1268444	865	112
0	1269499	866	104
0	1270868	867	126
0	1272652	868	189
0	1273970	869	135
0	1275386	870	160
0	1276763	871	120
0	1278513	872	165
0	1280113	873	171
0	1281432	874	130
0	1282617	875	120
0	1284081	876	141
0	1285353	877	121
0	1287043	878	179
0	1288464	879	124
0	1289855	880	133
0	1291393	881	145
0	1292631	882	103
0	1294210	883	152
0	1295800	884	143
0	1297138	885	119
0	1298260	886	107
0	1299637	887	128
0	1301130	888	148
0	1302845	889	174
0	1304278	890	121
0	1305730	891	151
0	1307231	892	158
0	1308744	893	142
0	1310141	894	124
0	1311433	895	113
0	1312610	896	108
0	1314091	897	150
0	1316008	898	194
0	1317786	899	181
0	1319314	900	140
0	1320889	901	154
0	1322267	902	143
0	1323783	903	147
0	1325432	904	154
0	1326792	905	127
0	1328206	906	129
0	1329516	907	117
0	1330877	908	128
0	1332201	909	135
0	1333644	910	143
0	1334962	911	115
0	1336353	912	138
0	1337569	913	137
0	1339097	914	145
0	1340327	915	103
0	1342007	916	161
0	1343556	917	136
0	1344877	918	142
0	1346185	919	131
0	1347533	920	126
0	1348920	921	138
0	1350106	922	119
0	1351587	923	138
0	1352815	924	101
0	1354240	925	140
0	1355780	926	155
0	1357299	927	160
0	1358846	928	144
0	1360532	929	167
0	1362131	930	175
0	1363475	931	115
0	1364877	932	129
0	1366299	933	143
0	1367792	934	156
0	1369199	935	134
0	1370461	936	123
0	1371800	937	138
0	1373074	938	107
0	1374664	939	147
0	1376448	940	154
0	1378037	941	168
0	1379359	942	125
0	1380589	943	127
0	1382384	944	188
0	1383840	945	133
0	1385162	946	131
0	1386283	947	122
0	1387687	948	131
0	1389264	949	134
0	1390667	950	137
0	1392048	951	130
0	1393497	952	134
0	1394733	953	117
0	1396400	954	162
0	1397620	955	127
0	1398979	956	120
0	1400615	957	157
0	1401900	958	116
0	1403411	959	146
0	1404513	960	100
0	1405805	961	115
0	1407576	962	182
0	1409011	963	138
0	1410630	964	138
0	1412374	965	169
0	1413667	966	112
0	1415168	967	142
0	1416787	968	148
0	1418238	969	144
0	1419805	970	151
0	1421253	971	143
0	1422692	972	136
0	1424584	973	175
0	1425806	974	101
0	1427087	975	122
0	1428351	976	111
0	1429988	977	168
0	1431320	978	117
0	1432946	979	149
0	1434230	980	114
0	1435496	981	119
0	1436976	982	153
0	1438718	983	183
0	1440143	984	144
0	1441501	985	127
0	1442925	986	129
0	1444301	987	137
0	1445709	988	127
0	1447317	989	125
0	1448618	990	135
0	1450192	991	139
0	1452079	992	196
0	1453399	993	109
0	1455025	994	171
0	1456380	995	138
0	1457963	996	138
0	1459226	997	122
0	1460842	998	157
0	1462214	999	127
0	1463592	1000	138
0	1465326	1001	181
0	1466616	1002	111
0	1467733	1003	98
0	1469191	1004	145
0	1470601	1005	119
0	1472274	1006	150
0	1473869	1007	164
0	1475432	1008	156
0	1476816	1009	143
0	1478576	1010	160
0	1479907	1011	132
0	1481383	1012	131
0	1482907	1013	155
0	1484103	1014	107
0	1485534	1015	134
0	1487089	1016	138
0	1488412	1017	122
0	1489765	1018	132
0	1491232	1019	142
0	1492647	1020	117
0	1494007	1021	117
0	1495244	1022	116
0	1496584	1023	113
0	1498292	1024	157
0	1499452	1025	93
0	1500997	1026	154
0	1502388	1027	134
0	1503959	1028	144
0	1505295	1029	131
0	1506672	1030	141
0	1507966	1031	127
0	1509493	1032	154
0	1511147	1033	157
0	1512953	1034	181
0	1514090	1035	100
0	1515512	1036	155
0	1517018	1037	143
0	1518587	1038	152
0	1520052	1039	124
0	1521782	1040	170
0	1522981	1041	106
0	1524838	1042	188
0	1526523	1043	164
0	1528200	1044	166
0	1529417	1045	122
0	1530614	1046	104
0	1532440	1047	179
0	1533785	1048	124
0	1535198	1049	138
0	1536534	1050	130
0	1538158	1051	149
0	1540046	1052	177
0	1541643	1053	160
0	1543047	1054	135
0	1544794	1055	162
0	1546220	1056	129
0	1547848	1057	189
0	1549609	1058	170
0	1551102	1059	142
0	1552347	1060	127
0	1553771	1061	139
0	1555503	1062	145
0	1557028	1063	146
0	1558379	1064	120
0	1559728	1065	114
0	1560949	1066	104
0	1562338	1067	128
0	1563651	1068	140
0	1565138	1069	118
0	1566816	1070	166
0	1567945	1071	104
0	1569625	1072	157
0	1570914	1073	128
0	1572423	1074	150
0	1573824	1075	130
0	1575517	1076	148
0	1576862	1077	120
0	1578174	1078	125
0	1579657	1079	142
0	1581117	1080	148
0	1582774	1081	166
0	1584518	1082	179
0	1585887	1083	140
0	1587398	1084	140
0	1588838	1085	135
0	1590531	1086	160
0	1592080	1087	148
0	1593557	1088	142
0	1594925	1089	119
0	1596432	1090	157
0	1597710	1091	111
0	1599252	1092	159
0	1600571	1093	122
0	1602050	1094	138
0	1603307	1095	100
0	1604644	1096	124
0	1606028	1097	125
0	1607340	1098	121
0	1608738	1099	151
0	1610672	1100	194
0	1611901	1101	120
0	1613604	1102	150
0	1615115	1103	146
0	1616398	1104	122
0	1617824	1105	141
0	1619495	1106	166
0	1621092	1107	164
0	1622728	1108	135
0	1624061	1109	128
0	1625699	1110	166
0	1627159	1111	129
0	1628854	1112	184
0	1630263	1113	138
0	1631873	1114	163
0	1633029	1115	101
0	1634470	1116	142
0	1636088	1117	153
0	1637668	1118	149
0	1639011	1119	126
0	1640401	1120	130
0	1641728	1121	118
0	1643092	1122	133
0	1644283	1123	118
0	1645824	1124	162
0	1647356	1125	143
0	1649082	1126	187
0	1650781	1127	178
0	1652247	1128	167
0	1653790	1129	146
0	1655517	1130	177
0	1656867	1131	123
0	1658572	1132	176
0	1660074	1133	151
0	1661129	1134	96
0	1662706	1135	142
0	1663967	1136	116
0	1665065	1137	107
0	1666566	1138	148
0	1668222	1139	143
0	1669451	1140	117
0	1670926	1141	134
0	1672554	1142	165
0	1674239	1143	154
0	1675827	1144	115
0	1677630	1145	176
0	1679159	1146	152
0	1680899	1147	163
0	1682251	1148	123
0	1683395	1149	99
0	1684854	1150	125
0	1686056	1151	113
0	1687407	1152	136
0	1688867	1153	119
0	1690444	1154	176
0	1692064	1155	135
0	1693677	1156	184
0	1694806	1157	96
0	1696098	1158	123
0	1697661	1159	156
0	1699293	1160	154
0	1700496	1161	106
0	1702148	1162	155
0	1703604	1163	121
0	1704916	1164	117
0	1706147	1165	106
0	1707714	1166	150
0	1709006	1167	121
0	1710500	1168	131
0	1711848	1169	143
0	1713628	1170	194
0	1715030	1171	131
0	1716906	1172	157
0	1718377	1173	120
0	1720102	1174	162
0	1721475	1175	120
0	1722963	1176	151
0	1724252	1177	110
0	1725458	1178	107
0	1726948	1179	155
0	1728581	1180	159
0	1730108	1181	144
0	1731471	1182	136
0	1733223	1183	167
0	1734685	1184	123
0	1735884	1185	106
0	1737375	1186	130
0	1738548	1187	98
0	1740080	1188	143
0	1741616	1189	157
0	1743030	1190	148
0	1744612	1191	131
0	1746349	1192	176
0	1747890	1193	156
0	1749276	1194	141
0	1750814	1195	133
0	1752534	1196	185
0	1754038	1197	137
0	1755566	1198	125
0	1757020	1199	139
0	1758327	1200	129
0	1759929	1201	159
0	1761490	1202	148
0	1763009	1203	134
0	1764483	1204	139
0	1765716	1205	134
0	1767186	1206	145
0	1768313	1207	106
0	1769761	1208	137
0	1771511	1209	183
0	1773044	1210	141
0	1774556	1211	157
0	1776127	1212	140
0	1777732	1213	146
0	1779113	1214	134
0	1780223	1215	101
0	1781548	1216	134
0	1782906	1217	119
0	1784089	1218	122
0	1785842	1219	178
0	1787310	1220	128
0	1788858	1221	135
0	1790182	1222	139
0	1791828	1223	157
0	1793678	1224	173
0	1795060	1225	145
0	1796588	1226	157
0	1797902	1227	131
0	1799608	1228	199
0	1801134	1229	151
0	1802656	1230	160
0	1804515	1231	188
0	1806229	1232	187
0	1807770	1233	132
0	1809054	1234	133
0	1810769	1235	152
0	1812048	1236	120
0	1813501	1237	152
0	1815087	1238	167
0	1816909	1239	199
0	1818390	1240	151
0	1819592	1241	119
0	1821257	1242	164
0	1822715	1243	149
0	1824254	1244	132
0	1825415	1245	116
0	1826898	1246	146
0	1828355	1247	146
0	1829838	1248	114
0	1831235	1249	122
0	1832948	1250	147
0	1834540	1251	151
0	1836142	1252	139
0	1837372	1253	119
0	1838839	1254	126
0	1840151	1255	119
0	1841384	1256	104
0	1842969	1257	160
0	1844804	1258	176
0	1846410	1259	157
0	1847844	1260	150
0	1849397	1261	148
0	1850302	1262	72
0	1851674	1263	143
0	1853109	1264	160
0	1854474	1265	120
0	1856163	1266	182
0	1857452	1267	122
0	1858999	1268	154
0	1860347	1269	121
0	1861813	1270	130
0	1863286	1271	160
0	1864644	1272	107
0	1866214	1273	159
0	1867655	1274	122
0	1869404	1275	170
0	1870605	1276	124
0	1872256	1277	170
0	1873549	1278	94
0	1875190	1279	168
0	1876804	1280	144
0	1878429	1281	148
0	1880064	1282	160
0	1881122	1283	85
0	1882571	1284	134
0	1884308	1285	166
0	1885871	1286	142
0	1887294	1287	130
0	1888547	1288	106
0	1889939	1289	143
0	1891328	1290	129
0	1892682	1291	147
0	1894326	1292	139
0	1895809	1293	144
0	1897310	1294	150
0	1898924	1295	145
0	1900176	1296	111
0	1901776	1297	145
0	1903352	1298	149
0	1904980	1299	149
0	1906586	1300	146
0	1908298	1301	169
0	1909435	1302	116
0	1911055	1303	137
0	1912352	1304	122
0	1913652	1305	101
0	1915060	1306	115
0	1916332	1307	127
0	1917818	1308	145
0	1919360	1309	151
0	1920701	1310	133
0	1922134	1311	134
0	1923923	1312	158
0	1925412	1313	146
0	1926891	1314	138
0	1928495	1315	129
0	1930121	1316	155
0	1931384	1317	122
0	1933100	1318	153
0	1934679	1319	146
0	1935854	1320	111
0	1937491	1321	160
0	1939020	1322	146
0	1940385	1323	134
0	1941859	1324	157
0	1943163	1325	133
0	1944608	1326	138
0	1946367	1327	174
0	1947684	1328	114
0	1949050	1329	131
0	1950582	1330	144
0	1952194	1331	171
0	1953661	1332	130
0	1955222	1333	158
0	1956616	1334	143
0	1957963	1335	134
0	1959447	1336	143
0	1960645	1337	119
0	1962257	1338	155
0	1963608	1339	134
0	1965140	1340	150
0	1966842	1341	181
0	1968334	1342	153
0	1969702	1343	129
0	1971421	1344	166
0	1972719	1345	139
0	1973972	1346	124
0	1975175	1347	122
0	1976331	1348	97
0	1977625	1349	131
0	1978809	1350	108
0	1979954	1351	104
0	1981390	1352	125
0	1982830	1353	143
0	1984521	1354	180
0	1986184	1355	150
0	1987518	1356	131
0	1989001	1357	158
0	1990426	1358	152
0	1992017	1359	172
0	1993490	1360	153
0	1994644	1361	115
0	1996032	1362	145
0	1997359	1363	128
0	1998852	1364	146
0	2000008	1365	105
0	2001343	1366	118
0	2003006	1367	166
0	2004435	1368	120
0	2005906	1369	134
0	2007207	1370	119
0	2009129	1371	191
0	2010758	1372	160
0	2011854	1373	101
0	2013267	1374	154
0	2014545	1375	113
0	2016067	1376	143
0	2017641	1377	147
0	2019590	1378	182
0	2021383	1379	154
0	2023142	1380	177
0	2024742	1381	143
0	2026232	1382	129
0	2027843	1383	146
0	2029179	1384	121
0	2030806	1385	164
0	2032300	1386	141
0	2033943	1387	154
0	2035322	1388	134
0	2036890	1389	153
0	2038240	1390	132
0	2039921	1391	172
0	2041590	1392	176
0	2043122	1393	175
0	2044746	1394	157
0	2046087	1395	132
0	2047257	1396	115
0	2048508	1397	120
0	2049890	1398	137
0	2051589	1399	170
0	2053023	1400	154
0	2054525	1401	135
0	2055894	1402	132
0	2057131	1403	104
0	2058340	1404	94
0	2059733	1405	124
0	2061384	1406	168
0	2062703	1407	122
0	2064036	1408	124
0	2065567	1409	148
0	2067240	1410	141
0	2068769	1411	168
0	2070393	1412	137
0	2072133	1413	169
0	2073504	1414	122
0	2075466	1415	175
0	2076953	1416	130
0	2078486	1417	158
0	2080112	1418	153
0	2081445	1419	140
0	2082898	1420	147
0	2084362	1421	149
0	2086180	1422	173
0	2087863	1423	172
0	2089556	1424	154
0	2091057	1425	138
0	2092479	1426	135
0	2094218	1427	194
0	2095417	1428	114
0	2096790	1429	128
0	2098016	1430	110
0	2099494	1431	149
0	2101014	1432	155
0	2102126	1433	107
0	2103864	1434	161
0	2105497	1435	168
0	2107308	1436	196
0	2109127	1437	170
0	2110603	1438	123
0	2112169	1439	155
0	2113553	1440	128
0	2114922	1441	146
0	2116296	1442	127
0	2117608	1443	125
0	2118986	1444	125
0	2120338	1445	125
0	2121830	1446	139
0	2123407	1447	134
0	2124846	1448	126
0	2126283	1449	144
0	2127568	1450	115
0	2129215	1451	158
0	2130616	1452	134
0	2131974	1453	133
0	2133467	1454	148
0	2134705	1455	119
0	2135839	1456	95
0	2137461	1457	177
0	2138747	1458	125
0	2140188	1459	124
0	2141763	1460	149
0	2143477	1461	179
0	2144976	1462	142
0	2146278	1463	121
0	2147710	1464	147
0	2149058	1465	121
0	2150267	1466	108
0	2151600	1467	132
0	2153075	1468	142
0	2154372	1469	126
0	2155856	1470	142
0	2157134	1471	129
0	2158738	1472	127
0	2160166	1473	125
0	2161634	1474	161
0	2163008	1475	123
0	2164503	1476	162
0	2165908	1477	146
0	2167510	1478	145
0	2169493	1479	202
0	2170930	1480	159
0	2172263	1481	132
0	2173683	1482	117
0	2174998	1483	118
0	2176297	1484	138
0	2177407	1485	99
0	2178873	1486	121
0	2180238	1487	130
0	2181383	1488	92
0	2182863	1489	129
0	2184163	1490	132
0	2185524	1491	128
0	2187087	1492	148
0	2188759	1493	163
0	2190345	1494	147
0	2191826	1495	136
0	2193710	1496	175
0	2195397	1497	152
0	2196661	1498	133
0	2197777	1499	93
0	2199093	1500	130
0	2200783	1501	149
0	2202118	1502	130
0	2203514	1503	147
0	2204970	1504	135
0	2206294	1505	129
0	2208047	1506	176
0	2209546	1507	134
0	2211081	1508	148
0	2212521	1509	145
0	2213928	1510	127
0	2215364	1511	125
0	2216980	1512	161
0	2218416	1513	131
0	2219721	1514	114
0	2221222	1515	140
0	2222713	1516	158
0	2223952	1517	114
0	2225207	1518	116
0	2226869	1519	155
0	2228347	1520	146
0	2229848	1521	142
0	2230947	1522	94
0	2232461	1523	157
0	2233788	1524	104
0	2235039	1525	116
0	2236551	1526	153
0	2238283	1527	159
0	2239724	1528	140
0	2241004	1529	121
0	2242505	1530	145
0	2243708	1531	114
0	2244978	1532	111
0	2246293	1533	116
0	2247955	1534	183
0	2249397	1535	145
0	2250848	1536	136
0	2252203	1537	136
0	2253472	1538	122
0	2255018	1539	159
0	2256520	1540	146
0	2257867	1541	128
0	2259358	1542	150
0	2260700	1543	117
0	2262028	1544	113
0	2263706	1545	165
0	2265136	1546	125
0	2266570	1547	143
0	2268179	1548	154
0	2269530	1549	132
0	2270859	1550	135
0	2272320	1551	128
0	2273967	1552	168
0	2275600	1553	158
0	2277136	1554	141
0	2278767	1555	154
0	2280307	1556	139
0	2281704	1557	118
0	2283183	1558	132
0	2284673	1559	135
0	2286063	1560	124
0	2287352	1561	120
0	2288711	1562	130
0	2290133	1563	137
0	2291509	1564	143
0	2292721	1565	105
0	2294512	1566	182
0	2296256	1567	191
0	2297653	1568	138
0	2299054	1569	124
0	2300498	1570	150
0	2301984	1571	151
0	2303323	1572	116
0	2304830	1573	146
0	2306385	1574	170
0	2308142	1575	160
0	2309369	1576	122
0	2310893	1577	177
0	2312350	1578	136
0	2313640	1579	119
0	2314933	1580	123
0	2316578	1581	170
0	2318307	1582	160
0	2319481	1583	103
0	2321028	1584	146
0	2322605	1585	154
0	2324141	1586	137
0	2325500	1587	142
0	2327020	1588	171
0	2328650	1589	165
0	2330136	1590	130
0	2331656	1591	139
0	2333290	1592	177
0	2334504	1593	127
0	2335769	1594	116
0	2337022	1595	108
0	2338446	1596	141
0	2339680	1597	109
0	2341080	1598	117
0	2342718	1599	153
0	2344241	1600	161
0	2345278	1601	96
0	2346690	1602	129
0	2348032	1603	123
0	2349616	1604	145
0	2350969	1605	136
0	2352400	1606	160
0	2353711	1607	124
0	2355399	1608	169
0	2356951	1609	157
0	2358301	1610	116
0	2359868	1611	168
0	2361382	1612	139
0	2362903	1613	168
0	2364132	1614	120