version 3
run SimulationTime-202-20240107-16:17:25-20592
attr configname SimulationTime
attr datetime 20240107-16:17:25
attr datetimef 20240107-161725
attr experiment SimulationTime
attr inifile omnetpp.ini
attr iterationvars ""
attr iterationvarsd ""
attr iterationvarsf ""
attr measurement ""
attr network System
attr processid 20592
attr repetition 202
attr replication #202
attr resultdir results
attr runnumber 202
attr seedset 202
config **.cpu.rate 1000
config **.hd.rateProcessing 250
config **.webServer.web_server_rate 100
config **.p1 0.35
config **.p2 0.40
config network System
config num-rngs 4
config **.cpu.rng-0 0
config **.cpu.rng-1 1
config **.hd.rng-0 2
config **.webServer.rng-0 3
config repeat 500
config seed-set 202
config sim-time-limit 10000s
config **.client.numClients 40

vector 0 System.server.cpu requestCounterStat:vector ETV
attr recordingmode vector
attr source requestCounter
vector 1 System.server.hd utilizationHdStat:vector ETV
attr recordingmode vector
attr source utilizationHd
vector 2 System.server.cpu utilizationCpuStat:vector ETV
attr recordingmode vector
attr source utilizationCpu
vector 3 System.webServer utilizationWsStat:vector ETV
attr recordingmode vector
attr source utilizationWs
0	1758	1	159
0	3260	2	147
0	5135	3	172
0	6721	4	145
0	8079	5	139
0	9459	6	141
0	10896	7	130
0	12262	8	133
0	13795	9	136
0	15291	10	148
0	16638	11	122
0	18152	12	147
0	19761	13	152
0	20818	14	98
0	22317	15	138
0	24245	16	183
0	25638	17	134
0	26988	18	137
0	28022	19	85
0	29802	20	174
0	31278	21	145
0	33036	22	163
0	34602	23	135
0	36311	24	186
0	37769	25	155
0	39552	26	182
0	41169	27	154
0	42757	28	165
0	44111	29	129
0	45593	30	154
0	47132	31	164
0	48448	32	121
0	49962	33	145
0	51716	34	149
0	53297	35	166
0	54630	36	122
0	56104	37	139
0	57888	38	161
0	59584	39	167
0	61006	40	140
0	62271	41	128
0	63634	42	114
0	64974	43	129
0	66309	44	114
0	67630	45	124
0	69268	46	179
0	70526	47	97
0	72299	48	170
0	73658	49	114
0	75045	50	129
0	76753	51	181
0	78377	52	149
0	79688	53	114
0	81349	54	160
0	82635	55	137
0	83880	56	118
0	85301	57	152
0	86589	58	137
0	88254	59	166
0	89552	60	124
0	91045	61	134
0	92766	62	162
0	93970	63	105
0	95785	64	180
0	97617	65	179
0	99083	66	135
0	100369	67	127
0	102041	68	157
0	103337	69	125
0	104965	70	168
0	106420	71	154
0	107720	72	117
0	109194	73	153
0	110412	74	119
0	111793	75	132
0	113111	76	125
0	114722	77	158
0	116153	78	126
0	117333	79	103
0	118662	80	121
0	120244	81	163
0	121808	82	153
0	122989	83	98
0	124309	84	123
0	125653	85	125
0	127418	86	188
0	128806	87	125
0	130389	88	148
0	132277	89	179
0	133595	90	126
0	135126	91	142
0	136869	92	172
0	138569	93	169
0	139749	94	103
0	141250	95	146
0	142510	96	135
0	143911	97	128
0	145308	98	132
0	146478	99	107
0	148291	100	191
0	149960	101	150
0	151304	102	133
0	152978	103	161
0	154568	104	147
0	155819	105	122
0	157114	106	122
0	158676	107	161
0	160048	108	139
0	161811	109	182
0	163146	110	125
0	165068	111	187
0	166565	112	174
0	168100	113	144
0	169480	114	143
0	171231	115	194
0	172646	116	122
0	173972	117	117
0	175375	118	150
0	176769	119	123
0	178228	120	153
0	179541	121	124
0	180776	122	118
0	182020	123	127
0	183036	124	87
0	184154	125	113
0	185819	126	174
0	187489	127	163
0	189443	128	205
0	191061	129	145
0	192156	130	101
0	193504	131	131
0	194714	132	105
0	196154	133	147
0	198167	134	190
0	199719	135	149
0	201151	136	135
0	202571	137	135
0	204300	138	172
0	205691	139	110
0	207084	140	123
0	208451	141	138
0	210061	142	163
0	211597	143	145
0	213090	144	148
0	214857	145	180
0	216391	146	133
0	217811	147	157
0	219446	148	154
0	220881	149	136
0	222480	150	147
0	224295	151	178
0	225741	152	147
0	227391	153	159
0	228809	154	129
0	230365	155	153
0	232141	156	175
0	233760	157	184
0	235561	158	176
0	236990	159	162
0	238230	160	116
0	239712	161	147
0	241422	162	165
0	243062	163	163
0	244111	164	104
0	245752	165	164
0	247014	166	123
0	248785	167	180
0	250233	168	139
0	251843	169	173
0	253259	170	126
0	255095	171	165
0	256301	172	121
0	257566	173	118
0	258939	174	120
0	260666	175	162
0	262162	176	139
0	263758	177	155
0	265206	178	147
0	266466	179	93
0	267922	180	150
0	269380	181	135
0	271113	182	160
0	272680	183	142
0	274393	184	172
0	275867	185	151
0	277280	186	136
0	278846	187	151
0	280273	188	146
0	281758	189	148
0	283324	190	134
0	284743	191	114
0	286320	192	158
0	288116	193	171
0	289884	194	177
0	291418	195	159
0	293044	196	145
0	294778	197	173
0	296279	198	136
0	297918	199	172
0	299366	200	144
0	300859	201	146
0	302218	202	138
0	303738	203	147
0	305402	204	157
0	307065	205	178
0	308775	206	173
0	310199	207	125
0	311750	208	166
0	313232	209	123
0	314750	210	136
0	316030	211	117
0	317602	212	155
0	319147	213	166
0	320717	214	131
0	322084	215	126
0	323472	216	135
0	324754	217	127
0	326033	218	132
0	327668	219	156
0	329038	220	148
0	330407	221	136
0	332142	222	168
0	333469	223	116
0	334932	224	152
0	336482	225	137
0	337787	226	114
0	339219	227	137
0	340379	228	103
0	341648	229	126
0	343141	230	131
0	344593	231	149
0	346341	232	157
0	348027	233	155
0	349378	234	116
0	350730	235	135
0	352345	236	152
0	353494	237	122
0	354869	238	130
0	356472	239	150
0	357992	240	162
0	359109	241	90
0	360279	242	119
0	361496	243	126
0	362781	244	106
0	364235	245	153
0	366251	246	187
0	367928	247	154
0	369187	248	108
0	370780	249	148
0	372484	250	178
0	373721	251	118
0	375070	252	136
0	376362	253	133
0	377902	254	157
0	379091	255	104
0	380560	256	136
0	381916	257	141
0	382964	258	87
0	384446	259	127
0	386256	260	154
0	387551	261	124
0	388810	262	118
0	390224	263	129
0	391793	264	172
0	393112	265	124
0	394669	266	146
0	395955	267	117
0	397647	268	173
0	399118	269	142
0	400446	270	112
0	401891	271	140
0	403754	272	178
0	405610	273	181
0	407285	274	174
0	408617	275	131
0	410104	276	144
0	411776	277	165
0	412944	278	99
0	414361	279	130
0	415804	280	153
0	417215	281	146
0	418820	282	148
0	420291	283	146
0	421812	284	134
0	423717	285	190
0	425286	286	146
0	426859	287	168
0	428427	288	159
0	429560	289	104
0	431236	290	156
0	432679	291	122
0	434097	292	141
0	435372	293	116
0	436833	294	138
0	438075	295	129
0	439553	296	119
0	440975	297	123
0	442487	298	145
0	444090	299	162
0	445887	300	187
0	447169	301	131
0	448833	302	165
0	450062	303	118
0	451338	304	107
0	452815	305	132
0	454180	306	128
0	455748	307	151
0	457156	308	143
0	458641	309	120
0	460068	310	131
0	461586	311	145
0	463005	312	136
0	464687	313	177
0	465828	314	108
0	467307	315	150
0	468861	316	151
0	470212	317	130
0	471575	318	126
0	472876	319	120
0	474263	320	149
0	475729	321	121
0	477091	322	137
0	478618	323	160
0	480167	324	170
0	481734	325	158
0	483256	326	159
0	484554	327	127
0	485792	328	103
0	487012	329	97
0	488400	330	132
0	489829	331	136
0	491124	332	106
0	492473	333	104
0	493749	334	111
0	495261	335	131
0	496525	336	115
0	498134	337	160
0	499568	338	137
0	500854	339	119
0	502089	340	125
0	503491	341	135
0	505065	342	151
0	506553	343	139
0	508346	344	184
0	510007	345	166
0	511642	346	150
0	513294	347	171
0	514649	348	144
0	516507	349	203
0	518124	350	153
0	520131	351	184
0	521473	352	131
0	522623	353	97
0	524030	354	130
0	525261	355	116
0	526570	356	120
0	528177	357	170
0	529819	358	155
0	531413	359	155
0	532883	360	134
0	534139	361	123
0	535453	362	133
0	536755	363	115
0	538108	364	112
0	539430	365	119
0	540929	366	148
0	542553	367	157
0	544133	368	153
0	545660	369	152
0	547580	370	192
0	549000	371	137
0	550449	372	132
0	551903	373	137
0	553369	374	143
0	554696	375	132
0	556384	376	177
0	557919	377	156
0	559764	378	180
0	561255	379	138
0	562543	380	126
0	563751	381	105
0	564950	382	106
0	566485	383	150
0	568061	384	141
0	569362	385	124
0	570859	386	140
0	572367	387	153
0	573853	388	147
0	575529	389	151
0	577003	390	144
0	578266	391	130
0	579637	392	110
0	581206	393	160
0	582500	394	133
0	583893	395	134
0	585246	396	124
0	587110	397	197
0	588649	398	168
0	590149	399	131
0	591841	400	164
0	593041	401	113
0	594587	402	167
0	596197	403	139
0	597621	404	137
0	598949	405	147
0	600425	406	147
0	601901	407	157
0	603208	408	130
0	604527	409	118
0	606171	410	176
0	607652	411	152
0	608947	412	140
0	610434	413	148
0	611591	414	88
0	613156	415	154
0	614581	416	122
0	615974	417	132
0	617634	418	141
0	619257	419	164
0	621031	420	162
0	622411	421	147
0	623759	422	131
0	624983	423	115
0	626548	424	148
0	627746	425	111
0	629374	426	153
0	631090	427	167
0	632769	428	136
0	634195	429	139
0	635889	430	154
0	637387	431	131
0	638971	432	161
0	640545	433	137
0	641648	434	102
0	643169	435	162
0	644511	436	121
0	646408	437	198
0	647868	438	125
0	649342	439	133
0	651031	440	157
0	652543	441	155
0	653897	442	137
0	655299	443	135
0	656630	444	130
0	657832	445	111
0	658716	446	85
0	659957	447	110
0	661383	448	117
0	662956	449	128
0	664305	450	123
0	665916	451	166
0	667375	452	126
0	669089	453	179
0	670316	454	116
0	671577	455	106
0	672843	456	115
0	674262	457	134
0	675733	458	146
0	677299	459	147
0	678887	460	148
0	680701	461	197
0	682431	462	177
0	683983	463	141
0	685273	464	107
0	686492	465	110
0	687728	466	123
0	688740	467	95
0	690202	468	131
0	691671	469	136
0	692877	470	110
0	694327	471	135
0	695814	472	146
0	697147	473	108
0	698694	474	130
0	700086	475	149
0	701230	476	111
0	702777	477	168
0	704220	478	138
0	705668	479	159
0	707153	480	133
0	708755	481	135
0	710439	482	185
0	711810	483	130
0	713383	484	144
0	714682	485	126
0	716356	486	183
0	717773	487	138
0	719412	488	156
0	720984	489	145
0	722186	490	104
0	723885	491	152
0	725553	492	169
0	727363	493	201
0	729020	494	170
0	730622	495	143
0	731969	496	122
0	733520	497	158
0	735050	498	149
0	736635	499	154
0	738206	500	161
0	739753	501	154
0	741204	502	142
0	742616	503	141
0	744042	504	141
0	745633	505	146
0	747243	506	169
0	748481	507	127
0	750078	508	144
0	751276	509	115
0	752827	510	157
0	754207	511	121
0	756155	512	197
0	757489	513	141
0	758787	514	115
0	760381	515	151
0	762143	516	173
0	763404	517	102
0	764560	518	117
0	766014	519	145
0	767347	520	135
0	769215	521	189
0	770827	522	151
0	772442	523	152
0	774079	524	164
0	775681	525	163
0	777134	526	144
0	778442	527	111
0	779653	528	116
0	781064	529	138
0	782366	530	128
0	783677	531	122
0	785534	532	178
0	786852	533	139
0	788585	534	184
0	790128	535	160
0	791570	536	145
0	792964	537	131
0	794484	538	145
0	796093	539	158
0	797597	540	150
0	799409	541	187
0	800853	542	137
0	801921	543	103
0	803169	544	109
0	805008	545	184
0	806583	546	146
0	808165	547	153
0	809609	548	127
0	811058	549	118
0	812447	550	123
0	813975	551	153
0	815390	552	134
0	816698	553	129
0	817859	554	106
0	819128	555	106
0	820501	556	132
0	821947	557	155
0	823264	558	108
0	824784	559	153
0	826079	560	133
0	827356	561	116
0	828814	562	131
0	830171	563	132
0	831817	564	153
0	833473	565	163
0	835193	566	173
0	836250	567	120
0	837836	568	147
0	839169	569	128
0	840769	570	164
0	842502	571	164
0	844155	572	140
0	845508	573	128
0	846938	574	149
0	848590	575	167
0	849999	576	136
0	851295	577	117
0	852263	578	89
0	853827	579	137
0	855291	580	150
0	856705	581	129
0	858116	582	126
0	859818	583	135
0	861405	584	166
0	862930	585	160
0	864560	586	163
0	866220	587	149
0	867508	588	127
0	869006	589	149
0	870311	590	121
0	871720	591	146
0	873237	592	144
0	874741	593	145
0	875668	594	86
0	876901	595	122
0	878382	596	132
0	880214	597	179
0	881907	598	152
0	883633	599	163
0	884986	600	123
0	886434	601	135
0	887898	602	133
0	889489	603	154
0	891189	604	159
0	892947	605	153
0	894537	606	157
0	896116	607	164
0	897508	608	139
0	898815	609	108
0	900160	610	141
0	901778	611	163
0	903588	612	191
0	904953	613	128
0	906496	614	154
0	907926	615	139
0	909581	616	178
0	911278	617	184
0	912475	618	128
0	914068	619	150
0	915564	620	142
0	916855	621	114
0	918298	622	146
0	919849	623	146
0	921102	624	120
0	922706	625	157
0	924239	626	136
0	925757	627	137
0	927177	628	143
0	928533	629	127
0	930532	630	199
0	931853	631	122
0	933561	632	187
0	934776	633	110
0	936538	634	181
0	937871	635	118
0	939195	636	117
0	940575	637	153
0	942229	638	155
0	943873	639	139
0	945467	640	168
0	946954	641	134
0	948401	642	142
0	949951	643	147
0	951320	644	118
0	952716	645	161
0	954252	646	159
0	955547	647	128
0	956840	648	130
0	958029	649	112
0	959595	650	160
0	961206	651	140
0	962790	652	137
0	964050	653	117
0	965756	654	173
0	967296	655	143
0	968994	656	159
0	970371	657	132
0	971699	658	113
0	973045	659	127
0	974884	660	193
0	976455	661	146
0	977733	662	135
0	979565	663	185
0	981283	664	149
0	982733	665	153
0	984312	666	164
0	985585	667	140
0	987056	668	140
0	988487	669	142
0	989797	670	122
0	991043	671	123
0	992901	672	171
0	994638	673	160
0	996206	674	155
0	997553	675	120
0	999064	676	134
0	1000799	677	148
0	1002367	678	143
0	1003407	679	97
0	1004561	680	102
0	1005926	681	144
0	1007453	682	142
0	1008796	683	110
0	1010418	684	175
0	1012133	685	154
0	1013778	686	156
0	1015173	687	128
0	1016572	688	128
0	1017958	689	129
0	1019496	690	136
0	1020708	691	101
0	1022318	692	139
0	1024061	693	162
0	1025583	694	161
0	1027006	695	136
0	1028662	696	135
0	1030360	697	169
0	1031625	698	108
0	1033205	699	145
0	1034725	700	156
0	1036176	701	144
0	1037309	702	100
0	1039067	703	177
0	1040532	704	152
0	1042143	705	158
0	1043787	706	165
0	1045276	707	148
0	1046939	708	152
0	1048489	709	153
0	1050087	710	166
0	1051291	711	113
0	1052839	712	149
0	1054151	713	115
0	1055230	714	100
0	1056776	715	135
0	1057991	716	126
0	1059235	717	121
0	1060790	718	150
0	1062456	719	171
0	1064196	720	164
0	1065682	721	165
0	1067211	722	150
0	1068726	723	150
0	1070201	724	162
0	1071571	725	139
0	1073020	726	142
0	1074175	727	120
0	1075801	728	141
0	1077266	729	140
0	1078816	730	152
0	1080510	731	153
0	1081862	732	131
0	1083462	733	151
0	1084708	734	113
0	1086090	735	123
0	1087424	736	137
0	1088900	737	143
0	1090476	738	173
0	1092105	739	168
0	1093289	740	114
0	1094794	741	142
0	1096133	742	132
0	1097786	743	170
0	1099394	744	165
0	1100834	745	135
0	1102253	746	132
0	1103919	747	153
0	1105510	748	172
0	1107362	749	185
0	1108962	750	156
0	1110355	751	126
0	1111416	752	104
0	1112806	753	135
0	1114504	754	165
0	1115654	755	95
0	1117009	756	132
0	1118314	757	134
0	1119829	758	156
0	1121515	759	159
0	1123142	760	177
0	1124413	761	124
0	1125710	762	130
0	1127129	763	140
0	1128518	764	140
0	1129806	765	105
0	1131438	766	141
0	1132788	767	129
0	1134062	768	123
0	1135564	769	129
0	1136727	770	103
0	1138011	771	119
0	1139032	772	100
0	1140614	773	159
0	1142181	774	140
0	1143613	775	151
0	1144948	776	152
0	1146119	777	114
0	1147489	778	141
0	1149297	779	197
0	1150488	780	109
0	1151950	781	131
0	1153382	782	145
0	1155080	783	175
0	1156969	784	188
0	1158540	785	144
0	1160190	786	185
0	1161852	787	171
0	1162980	788	109
0	1164108	789	103
0	1165836	790	158
0	1167484	791	163
0	1168978	792	133
0	1170461	793	158
0	1171814	794	116
0	1173167	795	140
0	1174440	796	128
0	1175386	797	83
0	1176836	798	159
0	1178560	799	177
0	1179934	800	126
0	1181338	801	147
0	1183139	802	158
0	1184272	803	108
0	1185799	804	142
0	1187465	805	159
0	1188606	806	106
0	1189980	807	119
0	1191588	808	155
0	1193252	809	161
0	1194454	810	110
0	1195993	811	142
0	1197503	812	127
0	1198807	813	117
0	1200364	814	164
0	1202268	815	201
0	1203427	816	114
0	1204822	817	136
0	1206043	818	110
0	1207678	819	166
0	1209477	820	161
0	1211321	821	177
0	1212558	822	116
0	1213605	823	94
0	1215289	824	155
0	1216517	825	111
0	1217815	826	107
0	1219348	827	142
0	1220917	828	136
0	1222360	829	136
0	1223630	830	114
0	1225168	831	147
0	1226726	832	149
0	1228117	833	128
0	1229418	834	112
0	1230536	835	115
0	1232013	836	136
0	1233079	837	75
0	1234327	838	89
0	1235753	839	123
0	1236819	840	102
0	1238050	841	100
0	1239429	842	122
0	1240794	843	134
0	1242516	844	175
0	1244103	845	140
0	1245444	846	142
0	1247102	847	181
0	1248374	848	119
0	1249597	849	104
0	1251084	850	133
0	1252597	851	142
0	1253811	852	123
0	1254820	853	92
0	1256096	854	115
0	1257568	855	139
0	1258887	856	110
0	1260242	857	118
0	1261648	858	137
0	1262855	859	114
0	1264245	860	112
0	1265748	861	146
0	1267077	862	110
0	1268679	863	149
0	1269950	864	126
0	1271362	865	133
0	1272724	866	135
0	1273963	867	124
0	1275562	868	144
0	1277034	869	145
0	1278681	870	153
0	1280181	871	159
0	1281574	872	138
0	1283094	873	153
0	1284250	874	89
0	1285466	875	97
0	1286709	876	106
0	1288027	877	119
0	1289431	878	129
0	1290787	879	125
0	1292513	880	174
0	1294119	881	141
0	1295600	882	142
0	1296717	883	112
0	1298019	884	107
0	1299374	885	134
0	1301010	886	175
0	1302275	887	114
0	1303755	888	151
0	1305354	889	146
0	1306991	890	173
0	1308619	891	165
0	1310187	892	133
0	1311557	893	119
0	1313107	894	133
0	1314458	895	126
0	1315696	896	127
0	1317114	897	149
0	1318511	898	120
0	1320243	899	175
0	1322027	900	190
0	1323341	901	123
0	1325018	902	176
0	1326279	903	132
0	1327958	904	164
0	1328996	905	83
0	1330578	906	167
0	1332389	907	178
0	1333903	908	149
0	1335590	909	154
0	1337041	910	157
0	1338465	911	145
0	1339737	912	117
0	1341131	913	137
0	1342439	914	139
0	1344001	915	145
0	1345248	916	128
0	1346760	917	149
0	1348388	918	165
0	1349800	919	129
0	1351268	920	128
0	1352509	921	108
0	1353994	922	168
0	1355122	923	113
0	1356721	924	156
0	1358436	925	162
0	1360105	926	166
0	1361591	927	151
0	1362846	928	124
0	1364349	929	140
0	1365570	930	125
0	1367048	931	141
0	1368342	932	133
0	1369741	933	150
0	1370937	934	103
0	1372129	935	107
0	1373717	936	159
0	1375390	937	162
0	1376894	938	135
0	1378705	939	184
0	1380346	940	173
0	1381708	941	111
0	1383069	942	124
0	1384580	943	150
0	1386149	944	144
0	1387289	945	109
0	1388446	946	108
0	1389783	947	148
0	1391272	948	132
0	1392996	949	177
0	1394497	950	143
0	1396104	951	162
0	1397461	952	126
0	1398878	953	110
0	1400430	954	169
0	1401759	955	128
0	1403517	956	187
0	1404868	957	132
0	1406217	958	134
0	1407344	959	116
0	1408820	960	152
0	1410384	961	151
0	1411657	962	120
0	1413011	963	123
0	1414465	964	143
0	1416265	965	185
0	1417963	966	159
0	1419506	967	146
0	1420871	968	132
0	1422373	969	141
0	1423937	970	166
0	1425621	971	163
0	1427038	972	142
0	1428418	973	129
0	1429700	974	119
0	1431385	975	188
0	1432590	976	112
0	1434154	977	169
0	1435315	978	112
0	1437164	979	184
0	1438899	980	175
0	1440582	981	144
0	1441856	982	127
0	1443525	983	180
0	1445081	984	143
0	1446383	985	125
0	1447536	986	108
0	1448847	987	116
0	1450173	988	121
0	1451630	989	128
0	1453499	990	183
0	1454906	991	146
0	1456366	992	141
0	1458098	993	157
0	1459267	994	114
0	1460557	995	121
0	1461851	996	131
0	1463186	997	138
0	1464706	998	161
0	1465893	999	118
0	1467562	1000	177
0	1469037	1001	152
0	1470432	1002	130
0	1471911	1003	138
0	1473486	1004	150
0	1474938	1005	165
0	1476125	1006	94
0	1477479	1007	121
0	1479098	1008	152
0	1480734	1009	141
0	1482376	1010	162
0	1483619	1011	116
0	1484889	1012	133
0	1486602	1013	158
0	1488077	1014	156
0	1489570	1015	140
0	1491149	1016	146
0	1492525	1017	113
0	1493897	1018	153
0	1495670	1019	182
0	1497095	1020	141
0	1498878	1021	152
0	1500277	1022	128
0	1501550	1023	124
0	1503068	1024	155
0	1504687	1025	166
0	1506097	1026	133
0	1507501	1027	151
0	1508843	1028	131
0	1510201	1029	123
0	1511739	1030	140
0	1513662	1031	186
0	1515094	1032	151
0	1516379	1033	120
0	1517830	1034	140
0	1519413	1035	146
0	1520995	1036	149
0	1522614	1037	150
0	1524257	1038	154
0	1525650	1039	124
0	1527179	1040	143
0	1528655	1041	149
0	1529950	1042	132
0	1531632	1043	145
0	1533344	1044	157
0	1534775	1045	134
0	1536377	1046	167
0	1537830	1047	140
0	1538985	1048	110
0	1540271	1049	129
0	1541808	1050	149
0	1543109	1051	120
0	1544649	1052	149
0	1546202	1053	156
0	1548004	1054	171
0	1549347	1055	122
0	1550702	1056	122
0	1551927	1057	108
0	1552884	1058	92
0	1554378	1059	137
0	1555922	1060	168
0	1557499	1061	152
0	1558858	1062	124
0	1560213	1063	146
0	1561902	1064	168
0	1563241	1065	126
0	1564403	1066	95
0	1565863	1067	153
0	1567392	1068	136
0	1568917	1069	136
0	1570042	1070	99
0	1571559	1071	140
0	1573056	1072	136
0	1574343	1073	114
0	1575653	1074	113
0	1576891	1075	109
0	1578334	1076	136
0	1579683	1077	136
0	1581217	1078	149
0	1582712	1079	146
0	1584139	1080	131
0	1585206	1081	96
0	1586736	1082	167
0	1588384	1083	149
0	1590025	1084	180
0	1591564	1085	158
0	1592888	1086	119
0	1594271	1087	124
0	1596031	1088	153
0	1597484	1089	128
0	1598953	1090	145
0	1600356	1091	120
0	1601675	1092	126
0	1602750	1093	102
0	1603901	1094	92
0	1605446	1095	154
0	1606794	1096	145
0	1608317	1097	162
0	1610182	1098	190
0	1611282	1099	111
0	1612619	1100	135
0	1613998	1101	130
0	1615422	1102	125
0	1616812	1103	125
0	1618452	1104	171
0	1619806	1105	123
0	1621338	1106	133
0	1623197	1107	212
0	1624601	1108	139
0	1626071	1109	143
0	1627320	1110	117
0	1628789	1111	158
0	1630169	1112	137
0	1631671	1113	133
0	1633067	1114	129
0	1634463	1115	143
0	1635823	1116	125
0	1637199	1117	133
0	1638664	1118	136
0	1640263	1119	158
0	1641622	1120	117
0	1643223	1121	144
0	1644666	1122	140
0	1646333	1123	154
0	1647911	1124	169
0	1649466	1125	152
0	1651031	1126	144
0	1652488	1127	150
0	1653471	1128	82
0	1654615	1129	111
0	1656075	1130	140
0	1657636	1131	150
0	1659146	1132	147
0	1660730	1133	157
0	1662191	1134	128
0	1663470	1135	128
0	1664795	1136	140
0	1666251	1137	131
0	1667898	1138	174
0	1669502	1139	163
0	1670866	1140	142
0	1672401	1141	142
0	1673789	1142	135
0	1675234	1143	152
0	1676758	1144	153
0	1678119	1145	126
0	1679489	1146	109
0	1680895	1147	121
0	1682385	1148	145
0	1684130	1149	170
0	1685390	1150	120
0	1686820	1151	135
0	1688630	1152	179
0	1690322	1153	145
0	1691579	1154	116
0	1692744	1155	108
0	1694414	1156	151
0	1695845	1157	138
0	1697089	1158	105
0	1698728	1159	148
0	1700162	1160	130
0	1701487	1161	116
0	1702676	1162	114
0	1704276	1163	155
0	1705940	1164	151
0	1707642	1165	183
0	1708909	1166	114
0	1710390	1167	132
0	1711522	1168	109
0	1713534	1169	199
0	1714806	1170	106
0	1716255	1171	136
0	1717428	1172	96
0	1718817	1173	128
0	1720547	1174	159
0	1721901	1175	147
0	1723170	1176	100
0	1724688	1177	159
0	1726326	1178	155
0	1727999	1179	172
0	1729603	1180	166
0	1731332	1181	186
0	1732790	1182	133
0	1734332	1183	139
0	1735789	1184	142
0	1737586	1185	168
0	1739000	1186	133
0	1740513	1187	148
0	1741950	1188	150
0	1743195	1189	116
0	1745064	1190	183
0	1746443	1191	142
0	1747783	1192	147
0	1749184	1193	142
0	1750696	1194	129
0	1752359	1195	154
0	1754144	1196	182
0	1755462	1197	121
0	1757222	1198	165
0	1758591	1199	136
0	1760024	1200	141
0	1761387	1201	120
0	1762871	1202	143
0	1764461	1203	143
0	1765925	1204	147
0	1767407	1205	137
0	1769059	1206	161
0	1770030	1207	84
0	1771175	1208	102
0	1772521	1209	125
0	1773939	1210	140
0	1775086	1211	100
0	1776649	1212	146
0	1778557	1213	193
0	1780177	1214	149
0	1781877	1215	161
0	1783452	1216	150
0	1784762	1217	133
0	1786277	1218	152
0	1787731	1219	139
0	1789389	1220	152
0	1791033	1221	161
0	1792558	1222	162
0	1794149	1223	168
0	1795741	1224	153
0	1797210	1225	138
0	1798665	1226	138
0	1799996	1227	140
0	1801153	1228	118
0	1802734	1229	160
0	1804207	1230	159
0	1805940	1231	158
0	1807563	1232	150
0	1809624	1233	222
0	1811084	1234	157
0	1812268	1235	105
0	1813562	1236	113
0	1815057	1237	140
0	1816797	1238	165
0	1818268	1239	146
0	1819732	1240	130
0	1821251	1241	152
0	1822800	1242	144
0	1824203	1243	134
0	1825558	1244	136
0	1826977	1245	126
0	1828170	1246	112
0	1829867	1247	166
0	1831149	1248	135
0	1832767	1249	171
0	1834259	1250	154
0	1835654	1251	124
0	1837072	1252	145
0	1838597	1253	154
0	1840279	1254	169
0	1841508	1255	124
0	1843013	1256	150
0	1844688	1257	174
0	1846279	1258	128
0	1847577	1259	109
0	1849023	1260	164
0	1850554	1261	128
0	1851840	1262	111
0	1853256	1263	141
0	1854866	1264	159
0	1856185	1265	114
0	1857529	1266	129
0	1858912	1267	130
0	1860265	1268	120
0	1861839	1269	155
0	1863026	1270	107
0	1864557	1271	160
0	1865987	1272	127
0	1867512	1273	132
0	1868985	1274	148
0	1870387	1275	131
0	1872186	1276	202
0	1873775	1277	156
0	1875026	1278	116
0	1876382	1279	125
0	1877778	1280	138
0	1879240	1281	139
0	1881170	1282	187
0	1882676	1283	151
0	1884297	1284	160
0	1885533	1285	125
0	1886858	1286	116
0	1888377	1287	134
0	1889842	1288	150
0	1891451	1289	154
0	1892773	1290	116
0	1894235	1291	129
0	1895505	1292	115
0	1896814	1293	124
0	1898231	1294	132
0	1899817	1295	155
0	1901358	1296	152
0	1902529	1297	110
0	1904062	1298	152
0	1905384	1299	139
0	1906759	1300	143
0	1908447	1301	159
0	1909781	1302	119
0	1911426	1303	160
0	1912841	1304	154
0	1914366	1305	152
0	1916099	1306	160
0	1917424	1307	116
0	1918933	1308	136
0	1920690	1309	172
0	1921987	1310	131
0	1923296	1311	130
0	1925013	1312	172
0	1926364	1313	122
0	1927556	1314	111
0	1928894	1315	123
0	1930302	1316	139
0	1931895	1317	166
0	1933386	1318	134
0	1934896	1319	139
0	1936533	1320	159
0	1937959	1321	131
0	1939296	1322	120
0	1940652	1323	131
0	1942004	1324	127
0	1943267	1325	118
0	1944790	1326	134
0	1946120	1327	135
0	1947366	1328	123
0	1948472	1329	101
0	1949989	1330	157
0	1951442	1331	152
0	1952566	1332	113
0	1953929	1333	130
0	1955314	1334	152
0	1956919	1335	146
0	1958308	1336	130
0	1959998	1337	187
0	1961198	1338	119
0	1962755	1339	166
0	1963873	1340	116
0	1965618	1341	202
0	1967199	1342	158
0	1968474	1343	134
0	1970052	1344	161
0	1971446	1345	143
0	1972640	1346	115
0	1973828	1347	85
0	1975188	1348	129
0	1976849	1349	150
0	1978122	1350	113
0	1979888	1351	179
0	1981286	1352	131
0	1982809	1353	146
0	1984613	1354	173
0	1985896	1355	120
0	1987059	1356	88
0	1988361	1357	113
0	1989972	1358	164
0	1991255	1359	106
0	1992755	1360	152
0	1994151	1361	141
0	1995841	1362	143
0	1997184	1363	114
0	1998596	1364	127
0	2000015	1365	132
0	2001405	1366	123
0	2002494	1367	104
0	2003959	1368	144
0	2005102	1369	114
0	2006484	1370	128
0	2007931	1371	128
0	2009138	1372	118
0	2010501	1373	134
0	2011988	1374	134
0	2013490	1375	141
0	2014835	1376	134
0	2016328	1377	144
0	2018031	1378	152
0	2019464	1379	140
0	2020913	1380	149
0	2022237	1381	109
0	2023797	1382	137
0	2025214	1383	132
0	2026668	1384	139
0	2027916	1385	123
0	2029392	1386	135
0	2030982	1387	149
0	2032544	1388	153
0	2033983	1389	112
0	2035773	1390	160
0	2037359	1391	159
0	2038602	1392	112
0	2039985	1393	128
0	2041124	1394	94
0	2042305	1395	116
0	2043765	1396	153
0	2045135	1397	135
0	2046405	1398	125
0	2048016	1399	164
0	2049487	1400	141
0	2050821	1401	123
0	2052124	1402	106
0	2053556	1403	129
0	2054918	1404	139
0	2055951	1405	96
0	2057139	1406	117
0	2058338	1407	118
0	2059780	1408	135
0	2061245	1409	142
0	2062800	1410	131
0	2064378	1411	163
0	2065844	1412	131
0	2067374	1413	163
0	2068979	1414	156
0	2070460	1415	158
0	2071828	1416	119
0	2073456	1417	145
0	2074909	1418	136
0	2076307	1419	119
0	2078061	1420	168
0	2079616	1421	156
0	2080894	1422	99
0	2082395	1423	132
0	2084274	1424	194
0	2085580	1425	121
0	2086964	1426	131
0	2088316	1427	115
0	2089683	1428	112
0	2091007	1429	121
0	2092301	1430	130
0	2093760	1431	146
0	2095487	1432	180
0	2097149	1433	139
0	2098458	1434	114
0	2100296	1435	177
0	2101740	1436	125
0	2102981	1437	102
0	2104187	1438	103
0	2105572	1439	128
0	2107350	1440	166
0	2108544	1441	131
0	2109883	1442	122
0	2111490	1443	170
0	2112611	1444	108
0	2114117	1445	135
0	2115669	1446	149
0	2117131	1447	127
0	2118604	1448	134
0	2120015	1449	132
0	2121421	1450	142
0	2122892	1451	132
0	2124366	1452	133
0	2125811	1453	160
0	2127246	1454	144
0	2128505	1455	122
0	2129845	1456	125
0	2131413	1457	163
0	2132835	1458	143
0	2134102	1459	106
0	2135411	1460	123
0	2136660	1461	128
0	2138117	1462	144
0	2139728	1463	158
0	2141030	1464	121
0	2142434	1465	137
0	2144339	1466	202
0	2146058	1467	146
0	2147439	1468	132
0	2148818	1469	130
0	2150374	1470	164
0	2151376	1471	99
0	2152592	1472	109
0	2154465	1473	192
0	2156262	1474	160
0	2157759	1475	144
0	2159238	1476	150
0	2160623	1477	116
0	2162494	1478	170
0	2163848	1479	135
0	2165273	1480	131
0	2166579	1481	127
0	2168020	1482	124
0	2169545	1483	148
0	2171153	1484	137
0	2172362	1485	108
0	2173893	1486	140
0	2175455	1487	153
0	2177015	1488	151
0	2178524	1489	146
0	2179607	1490	101
0	2181180	1491	160
0	2182597	1492	126
0	2183849	1493	115
0	2185194	1494	140
0	2186711	1495	144
0	2187992	1496	126
0	2189162	1497	105
0	2190911	1498	186
0	2192358	1499	138
0	2193801	1500	129
0	2195515	1501	155
0	2197360	1502	182
0	2198812	1503	145
0	2200359	1504	164
0	2201461	1505	107
0	2202922	1506	146
0	2204599	1507	154
0	2205888	1508	126
0	2207453	1509	148
0	2208933	1510	132
0	2210212	1511	132
0	2211812	1512	159
0	2213302	1513	141
0	2215036	1514	153
0	2216307	1515	122
0	2217896	1516	140
0	2219465	1517	144
0	2220967	1518	153
0	2222569	1519	177
0	2224008	1520	147
0	2225702	1521	145
0	2227530	1522	185
0	2228993	1523	156
0	2230745	1524	187
0	2232147	1525	135
0	2233647	1526	165
0	2234917	1527	115
0	2236576	1528	152
0	2238102	1529	141
0	2239341	1530	117
0	2240753	1531	133
0	2242053	1532	125
0	2243304	1533	102
0	2244734	1534	135
0	2245966	1535	109
0	2247445	1536	150
0	2249029	1537	147
0	2250231	1538	125
0	2251840	1539	156
0	2253445	1540	155
0	2254896	1541	138
0	2256072	1542	103
0	2257443	1543	122
0	2258919	1544	147
0	2260449	1545	143
0	2261671	1546	107
0	2263177	1547	147
0	2264676	1548	146
0	2266218	1549	167
0	2267834	1550	166
0	2269297	1551	138
0	2270836	1552	142
0	2272722	1553	191
0	2274258	1554	143
0	2275629	1555	126
0	2277393	1556	177
0	2278841	1557	125
0	2280271	1558	131
0	2281738	1559	136
0	2283352	1560	144
0	2284851	1561	146
0	2286154	1562	126
0	2287291	1563	110
0	2288400	1564	94
0	2289566	1565	103
0	2290876	1566	115
0	2292204	1567	127
0	2293950	1568	169
0	2295301	1569	122
0	2296683	1570	122
0	2298364	1571	166
0	2299863	1572	134
0	2301326	1573	130
0	2302666	1574	135
0	2304054	1575	129
0	2305519	1576	132
0	2306763	1577	125
0	2308162	1578	130
0	2309798	1579	149
0	2310971	1580	117
0	2312417	1581	139
0	2314170	1582	178
0	2315541	1583	134
0	2317137	1584	165
0	2318387	1585	99
0	2319969	1586	139
0	2321327	1587	133
0	2322888	1588	138
0	2324311	1589	132
0	2326089	1590	162
0	2327826	1591	146
0	2329073	1592	110
0	2330704	1593	146
0	2332154	1594	147
0	2333675	1595	154
0	2335031	1596	131
0	2336504	1597	126
0	2337783	1598	110
0	2338921	1599	107
0	2340438	1600	145
0	2341843	1601	128
0	2343139	1602	117
0	2344582	1603	158
0	2345713	1604	104
0	2347078	1605	140
0	2348530	1606	127
0	2349995	1607	138
0	2351369	1608	139
0	2352750	1609	130
0	2354110	1610	128
0	2355586	1611	147
0	2356820	1612	97
0	2358322	1613	157