version 3
run SimulationTime-319-20240108-13:23:08-18424
attr configname SimulationTime
attr datetime 20240108-13:23:08
attr datetimef 20240108-132308
attr experiment SimulationTime
attr inifile omnetpp.ini
attr iterationvars ""
attr iterationvarsd ""
attr iterationvarsf ""
attr measurement ""
attr network System
attr processid 18424
attr repetition 319
attr replication #319
attr resultdir results
attr runnumber 319
attr seedset 319
config **.cpu.rate 1000
config **.hd.rateProcessing 250
config **.webServer.web_server_rate 100
config **.p1 0.35
config **.p2 0.40
config network System
config num-rngs 4
config **.cpu.rng-0 0
config **.cpu.rng-1 1
config **.hd.rng-0 2
config **.webServer.rng-0 3
config repeat 500
config seed-set 319
config sim-time-limit 10000s
config **.client.numClients 40

vector 0 System.server.cpu requestCounterStat:vector ETV
attr recordingmode vector
attr source requestCounter
vector 1 System.server.hd utilizationHdStat:vector ETV
attr recordingmode vector
attr source utilizationHd
vector 2 System.server.cpu utilizationCpuStat:vector ETV
attr recordingmode vector
attr source utilizationCpu
vector 3 System.webServer utilizationWsStat:vector ETV
attr recordingmode vector
attr source utilizationWs
0	2129	1	190
0	3600	2	134
0	4838	3	117
0	6503	4	162
0	7954	5	144
0	9492	6	137
0	11134	7	167
0	12543	8	126
0	13847	9	109
0	15081	10	102
0	16341	11	123
0	17737	12	131
0	19036	13	126
0	20846	14	187
0	22414	15	149
0	23847	16	144
0	25387	17	141
0	27002	18	158
0	28430	19	129
0	30196	20	158
0	31694	21	151
0	33137	22	146
0	34503	23	123
0	36193	24	175
0	37703	25	143
0	39194	26	134
0	40419	27	110
0	41887	28	131
0	43461	29	161
0	44991	30	168
0	46404	31	142
0	47853	32	136
0	49341	33	141
0	51161	34	187
0	52698	35	132
0	54108	36	129
0	55613	37	154
0	56848	38	126
0	58302	39	165
0	59584	40	128
0	61062	41	149
0	62616	42	159
0	64062	43	147
0	65637	44	140
0	67008	45	144
0	68314	46	141
0	69692	47	115
0	70987	48	120
0	72393	49	121
0	73621	50	114
0	74903	51	137
0	76189	52	131
0	77578	53	114
0	78735	54	98
0	80325	55	155
0	81688	56	146
0	83220	57	139
0	84908	58	181
0	86185	59	118
0	87657	60	146
0	89141	61	127
0	90699	62	141
0	92062	63	118
0	93517	64	148
0	94867	65	129
0	96475	66	149
0	98264	67	170
0	99414	68	111
0	101014	69	157
0	102558	70	172
0	104230	71	155
0	106086	72	179
0	107559	73	142
0	108761	74	97
0	110312	75	142
0	111708	76	133
0	113024	77	125
0	114427	78	128
0	115572	79	110
0	116898	80	138
0	118230	81	117
0	119694	82	125
0	121125	83	130
0	122662	84	122
0	123874	85	123
0	125433	86	158
0	126815	87	105
0	128277	88	141
0	129545	89	121
0	131030	90	155
0	132562	91	137
0	134395	92	184
0	135871	93	149
0	137280	94	144
0	138759	95	148
0	140355	96	151
0	142118	97	160
0	143425	98	112
0	144601	99	113
0	146203	100	142
0	147643	101	157
0	149349	102	167
0	150863	103	167
0	152333	104	149
0	153798	105	132
0	155069	106	134
0	156318	107	126
0	157757	108	142
0	159210	109	124
0	160569	110	125
0	162258	111	182
0	163584	112	125
0	164859	113	128
0	166318	114	130
0	168269	115	194
0	169848	116	150
0	171483	117	166
0	172679	118	119
0	174070	119	126
0	175464	120	150
0	176646	121	113
0	178215	122	166
0	179715	123	157
0	181341	124	167
0	182565	125	97
0	183964	126	146
0	185330	127	125
0	186965	128	146
0	188343	129	129
0	189949	130	170
0	191304	131	138
0	192769	132	150
0	194209	133	151
0	195590	134	126
0	197133	135	156
0	198667	136	151
0	200184	137	144
0	201925	138	178
0	203564	139	152
0	204841	140	127
0	206107	141	119
0	207782	142	154
0	209191	143	138
0	210696	144	146
0	212028	145	125
0	213121	146	104
0	214720	147	150
0	216184	148	127
0	217315	149	96
0	218829	150	136
0	220373	151	155
0	221607	152	119
0	223128	153	160
0	224373	154	102
0	225710	155	126
0	227197	156	142
0	228719	157	167
0	230342	158	174
0	231723	159	140
0	233112	160	135
0	234732	161	165
0	236047	162	126
0	237467	163	127
0	238984	164	144
0	240324	165	139
0	241763	166	118
0	243274	167	150
0	244545	168	126
0	246087	169	143
0	247609	170	154
0	249200	171	162
0	250786	172	147
0	252558	173	165
0	254046	174	135
0	255412	175	117
0	256803	176	150
0	257857	177	81
0	259006	178	114
0	260551	179	160
0	261927	180	128
0	263319	181	127
0	264585	182	113
0	266052	183	130
0	267110	184	95
0	268626	185	157
0	270049	186	138
0	271845	187	181
0	273267	188	135
0	274605	189	127
0	275934	190	131
0	277424	191	143
0	278694	192	119
0	280035	193	122
0	281474	194	132
0	282929	195	154
0	284313	196	121
0	285797	197	161
0	287163	198	125
0	288763	199	159
0	290336	200	145
0	291636	201	147
0	293025	202	124
0	294165	203	97
0	295409	204	137
0	296819	205	151
0	298176	206	136
0	299796	207	175
0	301062	208	125
0	302581	209	138
0	303921	210	126
0	305291	211	131
0	306727	212	133
0	308036	213	126
0	309266	214	113
0	310706	215	149
0	312179	216	142
0	313268	217	96
0	314538	218	125
0	316107	219	142
0	317441	220	128
0	318980	221	158
0	319957	222	94
0	321367	223	127
0	322990	224	162
0	324792	225	175
0	326120	226	141
0	327279	227	106
0	328968	228	156
0	330028	229	89
0	331161	230	101
0	332359	231	125
0	333753	232	129
0	335015	233	117
0	336563	234	157
0	338174	235	154
0	339842	236	149
0	341832	237	191
0	343221	238	140
0	344859	239	161
0	346334	240	123
0	347919	241	170
0	349411	242	147
0	351134	243	178
0	352578	244	133
0	353952	245	137
0	355816	246	193
0	357753	247	186
0	359310	248	160
0	360979	249	140
0	362490	250	137
0	363925	251	110
0	365577	252	153
0	367157	253	161
0	368806	254	164
0	370170	255	121
0	372086	256	197
0	373572	257	137
0	375070	258	149
0	376781	259	164
0	377983	260	104
0	379422	261	128
0	380666	262	119
0	382104	263	129
0	383652	264	163
0	385259	265	168
0	386687	266	131
0	388003	267	125
0	389474	268	144
0	390747	269	110
0	392233	270	144
0	393454	271	128
0	394895	272	126
0	396249	273	131
0	397749	274	149
0	398878	275	88
0	400124	276	115
0	402003	277	188
0	403159	278	103
0	404656	279	148
0	406032	280	120
0	407503	281	136
0	408784	282	122
0	410166	283	143
0	411433	284	122
0	412644	285	106
0	414167	286	146
0	415236	287	100
0	416723	288	154
0	418224	289	136
0	419856	290	168
0	421494	291	149
0	423218	292	167
0	424543	293	132
0	425776	294	112
0	427119	295	114
0	428174	296	114
0	429921	297	182
0	431713	298	191
0	433056	299	124
0	434227	300	115
0	435632	301	146
0	436765	302	124
0	438501	303	183
0	440124	304	148
0	441636	305	135
0	442898	306	125
0	444216	307	123
0	445880	308	171
0	447230	309	121
0	448664	310	148
0	449923	311	124
0	451427	312	147
0	452780	313	136
0	454311	314	144
0	455905	315	143
0	457642	316	184
0	459498	317	189
0	460684	318	123
0	461857	319	114
0	463169	320	110
0	464710	321	156
0	466315	322	160
0	467829	323	151
0	469286	324	136
0	470800	325	143
0	471889	326	98
0	473379	327	157
0	474976	328	156
0	476457	329	134
0	477947	330	148
0	479018	331	106
0	480317	332	118
0	481824	333	138
0	483377	334	140
0	484901	335	129
0	486174	336	132
0	487645	337	146
0	488717	338	101
0	490155	339	139
0	491609	340	146
0	493373	341	181
0	495122	342	176
0	496479	343	128
0	497905	344	129
0	498989	345	99
0	500162	346	86
0	501765	347	160
0	503296	348	138
0	504673	349	136
0	506007	350	128
0	507539	351	141
0	509080	352	134
0	510803	353	178
0	512303	354	143
0	514086	355	176
0	515386	356	125
0	517040	357	167
0	518392	358	113
0	519609	359	128
0	520923	360	138
0	522292	361	134
0	523699	362	132
0	525523	363	181
0	526792	364	126
0	528294	365	145
0	529754	366	145
0	531076	367	131
0	532753	368	166
0	533902	369	98
0	535051	370	113
0	536468	371	142
0	537934	372	135
0	539364	373	123
0	540936	374	165
0	542284	375	137
0	543863	376	136
0	545358	377	148
0	546718	378	129
0	548347	379	144
0	549664	380	119
0	550968	381	123
0	552539	382	158
0	554010	383	120
0	555659	384	156
0	556941	385	127
0	558259	386	135
0	559372	387	104
0	561149	388	168
0	562637	389	137
0	564237	390	164
0	565608	391	132
0	566723	392	106
0	568330	393	158
0	569801	394	154
0	571428	395	150
0	572778	396	121
0	574297	397	150
0	575637	398	137
0	577237	399	157
0	578488	400	123
0	580498	401	195
0	582032	402	137
0	583756	403	165
0	585299	404	138
0	586868	405	144
0	588294	406	145
0	590233	407	214
0	591799	408	149
0	593423	409	151
0	595013	410	152
0	596387	411	145
0	598176	412	170
0	599534	413	121
0	601005	414	134
0	602293	415	131
0	603768	416	158
0	605134	417	107
0	606362	418	101
0	607794	419	137
0	609189	420	109
0	610788	421	150
0	612032	422	109
0	613642	423	167
0	614965	424	106
0	616164	425	120
0	617708	426	143
0	618844	427	105
0	619880	428	81
0	621142	429	115
0	622518	430	132
0	623703	431	128
0	624978	432	114
0	626581	433	162
0	628047	434	147
0	629523	435	137
0	630770	436	132
0	632135	437	122
0	633659	438	139
0	634926	439	124
0	636279	440	139
0	637462	441	118
0	638968	442	137
0	640666	443	161
0	641838	444	105
0	642993	445	106
0	644109	446	105
0	645500	447	150
0	647287	448	182
0	648510	449	102
0	649852	450	106
0	651393	451	152
0	652848	452	126
0	654092	453	125
0	655519	454	130
0	657151	455	165
0	658518	456	126
0	659696	457	111
0	661107	458	138
0	662531	459	135
0	664104	460	145
0	666017	461	176
0	667535	462	135
0	669157	463	159
0	670426	464	108
0	672010	465	157
0	673340	466	117
0	674766	467	129
0	676009	468	88
0	677423	469	137
0	678883	470	128
0	680159	471	113
0	681825	472	171
0	683200	473	128
0	684678	474	131
0	686376	475	169
0	688275	476	158
0	689929	477	143
0	691470	478	144
0	692902	479	157
0	694129	480	127
0	695600	481	150
0	697054	482	145
0	698658	483	149
0	699903	484	108
0	701117	485	113
0	702379	486	115
0	704119	487	191
0	705726	488	150
0	706906	489	105
0	708320	490	134
0	709655	491	122
0	711124	492	154
0	712646	493	145
0	713938	494	133
0	715292	495	133
0	716556	496	125
0	717821	497	110
0	719365	498	145
0	720840	499	162
0	722560	500	164
0	724054	501	127
0	725515	502	140
0	726828	503	118
0	728213	504	130
0	730017	505	169
0	731719	506	163
0	733363	507	165
0	735146	508	180
0	736556	509	125
0	737828	510	120
0	739066	511	127
0	740535	512	132
0	742238	513	154
0	743539	514	136
0	744908	515	134
0	746540	516	185
0	748222	517	161
0	750211	518	210
0	751601	519	113
0	753377	520	176
0	755152	521	174
0	756701	522	140
0	758623	523	191
0	759832	524	114
0	761331	525	148
0	762744	526	132
0	764386	527	143
0	765682	528	109
0	767101	529	124
0	768575	530	144
0	769941	531	131
0	771201	532	125
0	772429	533	113
0	773977	534	139
0	775400	535	140
0	777117	536	168
0	778755	537	147
0	779944	538	98
0	781309	539	118
0	782870	540	147
0	784619	541	148
0	786179	542	137
0	787770	543	154
0	789025	544	118
0	790442	545	136
0	791870	546	155
0	793091	547	114
0	794807	548	175
0	795947	549	99
0	797484	550	147
0	798909	551	114
0	800323	552	149
0	801582	553	122
0	802913	554	118
0	804503	555	165
0	805922	556	148
0	807129	557	110
0	808564	558	120
0	809960	559	131
0	811578	560	162
0	812929	561	122
0	814319	562	125
0	815684	563	114
0	817336	564	183
0	818625	565	118
0	819944	566	142
0	821525	567	144
0	823048	568	136
0	824568	569	143
0	826077	570	153
0	827632	571	128
0	829306	572	169
0	830884	573	141
0	832353	574	132
0	833894	575	144
0	835105	576	98
0	836728	577	162
0	838014	578	111
0	839487	579	154
0	841294	580	179
0	842479	581	116
0	843955	582	147
0	845440	583	156
0	846814	584	111
0	848240	585	137
0	849573	586	136
0	851068	587	156
0	852827	588	168
0	854352	589	146
0	855461	590	97
0	856991	591	159
0	858136	592	92
0	859250	593	99
0	860965	594	186
0	862270	595	114
0	863474	596	129
0	864823	597	138
0	866617	598	187
0	868216	599	166
0	869684	600	140
0	870797	601	120
0	872134	602	110
0	873232	603	93
0	874748	604	141
0	876454	605	155
0	877824	606	127
0	879184	607	145
0	880732	608	133
0	882074	609	125
0	883421	610	133
0	884767	611	133
0	885787	612	91
0	887301	613	165
0	888877	614	149
0	890258	615	124
0	891640	616	127
0	893077	617	130
0	894552	618	158
0	896034	619	141
0	897703	620	179
0	898793	621	79
0	900418	622	158
0	902005	623	140
0	903373	624	127
0	904895	625	141
0	906345	626	133
0	907747	627	133
0	909339	628	143
0	910811	629	129
0	912105	630	118
0	913715	631	163
0	915097	632	129
0	916555	633	123
0	917951	634	141
0	919540	635	158
0	920567	636	92
0	921535	637	69
0	923351	638	173
0	924725	639	143
0	926248	640	145
0	927596	641	107
0	928984	642	139
0	930571	643	158
0	932310	644	170
0	933925	645	146
0	935241	646	125
0	936845	647	161
0	938278	648	136
0	939474	649	117
0	940823	650	115
0	942468	651	174
0	944098	652	147
0	945560	653	131
0	946903	654	134
0	948084	655	108
0	949566	656	145
0	950974	657	149
0	952434	658	153
0	953874	659	129
0	955337	660	133
0	956904	661	148
0	958332	662	139
0	960120	663	169
0	961534	664	159
0	963316	665	191
0	964826	666	155
0	966213	667	118
0	967548	668	132
0	969279	669	156
0	970820	670	139
0	972573	671	160
0	973823	672	127
0	975395	673	153
0	976860	674	138
0	978210	675	139
0	979624	676	133
0	981346	677	159
0	982830	678	145
0	984117	679	122
0	985331	680	122
0	986945	681	155
0	988194	682	116
0	989718	683	157
0	991114	684	127
0	992958	685	167
0	994388	686	117
0	995512	687	123
0	996657	688	108
0	997785	689	109
0	999103	690	138
0	1000189	691	87
0	1001693	692	137
0	1002978	693	124
0	1004366	694	135
0	1006448	695	209
0	1008156	696	153
0	1009709	697	148
0	1010906	698	106
0	1012397	699	128
0	1013885	700	140
0	1015434	701	154
0	1016973	702	142
0	1018380	703	116
0	1020017	704	140
0	1021528	705	142
0	1023166	706	159
0	1024542	707	113
0	1026077	708	154
0	1027558	709	130
0	1029227	710	161
0	1030429	711	103
0	1031503	712	99
0	1032882	713	138
0	1034549	714	146
0	1035989	715	133
0	1037619	716	159
0	1039011	717	139
0	1040328	718	130
0	1041753	719	132
0	1043217	720	132
0	1044600	721	138
0	1045924	722	117
0	1047298	723	129
0	1048737	724	140
0	1050117	725	157
0	1051743	726	171
0	1053246	727	154
0	1054783	728	144
0	1056366	729	146
0	1057809	730	137
0	1059369	731	149
0	1060726	732	130
0	1062087	733	126
0	1063755	734	159
0	1065458	735	148
0	1066739	736	114
0	1068233	737	133
0	1069740	738	150
0	1071186	739	121
0	1072805	740	155
0	1074357	741	157
0	1075885	742	163
0	1077562	743	166
0	1078987	744	140
0	1080650	745	144
0	1082127	746	148
0	1083936	747	196
0	1085207	748	108
0	1086116	749	72
0	1087537	750	143
0	1089090	751	162
0	1090745	752	136
0	1092226	753	132
0	1093788	754	155
0	1095466	755	183
0	1096897	756	138
0	1098428	757	158
0	1100353	758	188
0	1101818	759	136
0	1103428	760	162
0	1104590	761	95
0	1106160	762	143
0	1107793	763	158
0	1109160	764	120
0	1110408	765	129
0	1112035	766	166
0	1114142	767	218
0	1115712	768	159
0	1116995	769	136
0	1118435	770	128
0	1119567	771	99
0	1120927	772	125
0	1122271	773	137
0	1123424	774	122
0	1124844	775	157
0	1126152	776	117
0	1127210	777	105
0	1128521	778	108
0	1130293	779	175
0	1131734	780	143
0	1133168	781	141
0	1134917	782	146
0	1136321	783	135
0	1137748	784	140
0	1139423	785	174
0	1140798	786	146
0	1142498	787	173
0	1144099	788	132
0	1145711	789	147
0	1147347	790	158
0	1148979	791	133
0	1150260	792	120
0	1151484	793	119
0	1153057	794	154
0	1154310	795	128
0	1155665	796	130
0	1157157	797	145
0	1158292	798	108
0	1159858	799	169
0	1161170	800	128
0	1162586	801	121
0	1163889	802	130
0	1165324	803	160
0	1166892	804	151
0	1168699	805	190
0	1169973	806	127
0	1171583	807	171
0	1172832	808	104
0	1174348	809	137
0	1175795	810	133
0	1177392	811	172
0	1179063	812	150
0	1180665	813	155
0	1181950	814	120
0	1183501	815	158
0	1185037	816	141
0	1186409	817	125
0	1187872	818	130
0	1189138	819	131
0	1190374	820	114
0	1191728	821	129
0	1193108	822	117
0	1194873	823	170
0	1196302	824	134
0	1197910	825	153
0	1199604	826	155
0	1200961	827	124
0	1202418	828	148
0	1203709	829	130
0	1205187	830	148
0	1206538	831	128
0	1208242	832	151
0	1209875	833	154
0	1211007	834	107
0	1212629	835	157
0	1213842	836	108
0	1215324	837	143
0	1216663	838	134
0	1218154	839	126
0	1219847	840	167
0	1220996	841	128
0	1222546	842	147
0	1224003	843	136
0	1225414	844	138
0	1226869	845	136
0	1228370	846	144
0	1229973	847	160
0	1231055	848	107
0	1232633	849	153
0	1233964	850	119
0	1235646	851	167
0	1237197	852	130
0	1239131	853	167
0	1240404	854	124
0	1241800	855	133
0	1243353	856	142
0	1244587	857	129
0	1246170	858	158
0	1247742	859	149
0	1249196	860	138
0	1250503	861	116
0	1252003	862	135
0	1253416	863	148
0	1254983	864	150
0	1256526	865	168
0	1257844	866	133
0	1259335	867	134
0	1261248	868	184
0	1262459	869	122
0	1263829	870	126
0	1265218	871	138
0	1266359	872	92
0	1267813	873	149
0	1269279	874	147
0	1270896	875	152
0	1272436	876	141
0	1273965	877	148
0	1275607	878	167
0	1277134	879	138
0	1278469	880	127
0	1280095	881	173
0	1281470	882	118
0	1282831	883	120
0	1284167	884	123
0	1285586	885	132
0	1287110	886	157
0	1288686	887	153
0	1290094	888	129
0	1291103	889	96
0	1292666	890	157
0	1294032	891	121
0	1295459	892	120
0	1296838	893	136
0	1298031	894	114
0	1299233	895	115
0	1300699	896	129
0	1302423	897	179
0	1304054	898	170
0	1305342	899	125
0	1307061	900	161
0	1308501	901	119
0	1310085	902	149
0	1311353	903	99
0	1312759	904	135
0	1314635	905	189
0	1316131	906	133
0	1317726	907	170
0	1319532	908	161
0	1321327	909	150
0	1322803	910	130
0	1324543	911	165
0	1326156	912	160
0	1327325	913	88
0	1328771	914	129
0	1330488	915	174
0	1332127	916	160
0	1333592	917	150
0	1335078	918	139
0	1336353	919	118
0	1337709	920	132
0	1339330	921	148
0	1340926	922	153
0	1342367	923	148
0	1343600	924	128
0	1345205	925	140
0	1346729	926	145
0	1348044	927	130
0	1349188	928	113
0	1350631	929	154
0	1351685	930	82
0	1353115	931	131
0	1354685	932	153
0	1356044	933	116
0	1357587	934	166
0	1359048	935	138
0	1360592	936	161
0	1362054	937	137
0	1363103	938	96
0	1364491	939	129
0	1365850	940	133
0	1366850	941	87
0	1368390	942	147
0	1369756	943	113
0	1371485	944	166
0	1373110	945	140
0	1374635	946	148
0	1376025	947	143
0	1377231	948	99
0	1378777	949	143
0	1380177	950	138
0	1381622	951	162
0	1383137	952	138
0	1384326	953	106
0	1385645	954	102
0	1387220	955	152
0	1388447	956	114
0	1389771	957	117
0	1391009	958	121
0	1392665	959	159
0	1393763	960	102
0	1395086	961	126
0	1396715	962	164
0	1398197	963	151
0	1399734	964	156
0	1401719	965	196
0	1403047	966	129
0	1404625	967	161
0	1406042	968	130
0	1407626	969	151
0	1409016	970	136
0	1410351	971	134
0	1411953	972	155
0	1413552	973	158
0	1414800	974	125
0	1416472	975	177
0	1417965	976	144
0	1419509	977	163
0	1420598	978	100
0	1422181	979	160
0	1423773	980	164
0	1424969	981	111
0	1426618	982	156
0	1428101	983	154
0	1429648	984	150
0	1430966	985	117
0	1432260	986	123
0	1433625	987	140
0	1435265	988	169
0	1436740	989	158
0	1438168	990	128
0	1439650	991	143
0	1440954	992	119
0	1442417	993	138
0	1443965	994	159
0	1445035	995	85
0	1446424	996	130
0	1447995	997	152
0	1449734	998	170
0	1451304	999	165
0	1452801	1000	155
0	1454355	1001	143
0	1455921	1002	135
0	1457418	1003	146
0	1458666	1004	119
0	1460251	1005	152
0	1461559	1006	121
0	1463056	1007	148
0	1464607	1008	150
0	1466311	1009	175
0	1467708	1010	133
0	1469255	1011	164
0	1470611	1012	131
0	1472204	1013	150
0	1473874	1014	147
0	1475475	1015	164
0	1476906	1016	132
0	1478445	1017	146
0	1480170	1018	160
0	1481788	1019	127
0	1483312	1020	144
0	1484859	1021	134
0	1486138	1022	138
0	1487570	1023	145
0	1488942	1024	123
0	1490452	1025	147
0	1491623	1026	100
0	1493210	1027	154
0	1494506	1028	101
0	1495998	1029	149
0	1497358	1030	124
0	1498719	1031	148
0	1499998	1032	126
0	1501766	1033	171
0	1503327	1034	142
0	1504808	1035	144
0	1506465	1036	166
0	1508130	1037	164
0	1509631	1038	152
0	1511313	1039	161
0	1512855	1040	134
0	1514159	1041	133
0	1515560	1042	132
0	1516934	1043	127
0	1518266	1044	125
0	1519958	1045	179
0	1521700	1046	169
0	1523095	1047	130
0	1524735	1048	157
0	1526050	1049	114
0	1527358	1050	110
0	1528999	1051	148
0	1530588	1052	154
0	1531944	1053	113
0	1533469	1054	154
0	1534843	1055	137
0	1536125	1056	123
0	1537479	1057	133
0	1538766	1058	104
0	1540331	1059	158
0	1541593	1060	122
0	1543294	1061	174
0	1544747	1062	140
0	1546072	1063	116
0	1547254	1064	107
0	1548646	1065	149
0	1549919	1066	136
0	1551373	1067	141
0	1552953	1068	139
0	1554434	1069	140
0	1555651	1070	111
0	1557067	1071	149
0	1558890	1072	178
0	1560339	1073	126
0	1561622	1074	140
0	1563122	1075	143
0	1564680	1076	177
0	1566254	1077	151
0	1567372	1078	87
0	1568775	1079	136
0	1570360	1080	157
0	1571917	1081	152
0	1573583	1082	167
0	1574943	1083	125
0	1576627	1084	171
0	1578345	1085	169
0	1579881	1086	153
0	1581574	1087	164
0	1582783	1088	104
0	1584203	1089	147
0	1585254	1090	93
0	1586701	1091	140
0	1588484	1092	198
0	1590245	1093	162
0	1591590	1094	118
0	1593244	1095	139
0	1594914	1096	171
0	1596425	1097	142
0	1597794	1098	132
0	1599204	1099	123
0	1600590	1100	144
0	1602106	1101	139
0	1603704	1102	147
0	1605086	1103	129
0	1606667	1104	160
0	1608338	1105	172
0	1609698	1106	129
0	1611101	1107	134
0	1612561	1108	121
0	1614185	1109	169
0	1615744	1110	161
0	1617457	1111	144
0	1618862	1112	130
0	1620339	1113	126
0	1621705	1114	147
0	1623275	1115	149
0	1624874	1116	154
0	1626322	1117	135
0	1627759	1118	156
0	1629152	1119	164
0	1630743	1120	161
0	1632281	1121	143
0	1633844	1122	166
0	1634893	1123	88
0	1636394	1124	158
0	1637930	1125	167
0	1639222	1126	111
0	1640752	1127	153
0	1642243	1128	146
0	1643674	1129	138
0	1645573	1130	173
0	1647284	1131	162
0	1648982	1132	159
0	1650394	1133	133
0	1651742	1134	129
0	1652967	1135	88
0	1654164	1136	132
0	1655255	1137	102
0	1656720	1138	142
0	1658535	1139	172
0	1659871	1140	114
0	1661383	1141	147
0	1662923	1142	157
0	1664483	1143	157
0	1665996	1144	144
0	1667407	1145	138
0	1669171	1146	161
0	1670723	1147	157
0	1672294	1148	154
0	1673429	1149	98
0	1674864	1150	125
0	1676650	1151	187
0	1678415	1152	180
0	1679945	1153	155
0	1681998	1154	212
0	1683501	1155	142
0	1685386	1156	188
0	1686588	1157	115
0	1687927	1158	120
0	1689827	1159	195
0	1691072	1160	115
0	1692458	1161	121
0	1694051	1162	156
0	1695265	1163	113
0	1696967	1164	161
0	1698504	1165	142
0	1700249	1166	168
0	1701500	1167	130
0	1703045	1168	136
0	1704381	1169	129
0	1705851	1170	148
0	1707353	1171	133
0	1708910	1172	162
0	1710285	1173	116
0	1711954	1174	150
0	1713116	1175	121
0	1714368	1176	119
0	1715739	1177	98
0	1717329	1178	147
0	1718514	1179	126
0	1720018	1180	130
0	1721299	1181	114
0	1723172	1182	188
0	1724930	1183	163
0	1726184	1184	115
0	1727527	1185	126
0	1729034	1186	162
0	1730734	1187	183
0	1732001	1188	120
0	1733443	1189	147
0	1734636	1190	113
0	1735878	1191	113
0	1737207	1192	136
0	1738474	1193	118
0	1740068	1194	161
0	1741472	1195	143
0	1742910	1196	153
0	1744717	1197	186
0	1746412	1198	156
0	1747664	1199	125
0	1748797	1200	117
0	1750112	1201	120
0	1751752	1202	145
0	1753286	1203	159
0	1754938	1204	137
0	1756283	1205	120
0	1757474	1206	104
0	1759017	1207	168
0	1760476	1208	138
0	1762149	1209	160
0	1763639	1210	158
0	1765374	1211	174
0	1767054	1212	141
0	1768461	1213	130
0	1770070	1214	154
0	1771677	1215	136
0	1773152	1216	150
0	1774393	1217	114
0	1776027	1218	153
0	1777391	1219	125
0	1778921	1220	138
0	1780641	1221	169
0	1781980	1222	138
0	1783303	1223	108
0	1784705	1224	135
0	1786551	1225	185
0	1787852	1226	116
0	1789540	1227	161
0	1791125	1228	176
0	1792644	1229	156
0	1793861	1230	115
0	1795361	1231	147
0	1797256	1232	206
0	1798705	1233	148
0	1800422	1234	180
0	1801935	1235	136
0	1803357	1236	147
0	1804476	1237	110
0	1805928	1238	123
0	1807541	1239	162
0	1809163	1240	138
0	1810642	1241	158
0	1811959	1242	128
0	1813402	1243	136
0	1814943	1244	154
0	1816476	1245	140
0	1817940	1246	133
0	1819350	1247	135
0	1820661	1248	122
0	1821909	1249	113
0	1823305	1250	136
0	1824419	1251	107
0	1825685	1252	121
0	1827111	1253	145
0	1828665	1254	129
0	1830250	1255	154
0	1831886	1256	171
0	1833501	1257	152
0	1834918	1258	136
0	1836162	1259	101
0	1837390	1260	120
0	1839094	1261	169
0	1840299	1262	108
0	1841682	1263	142
0	1843252	1264	153
0	1844729	1265	140
0	1846238	1266	130
0	1848048	1267	179
0	1849550	1268	143
0	1851201	1269	158
0	1852793	1270	172
0	1853922	1271	108
0	1855551	1272	152
0	1856546	1273	88
0	1857964	1274	141
0	1859233	1275	112
0	1860653	1276	129
0	1862220	1277	158
0	1863533	1278	118
0	1865062	1279	132
0	1866787	1280	173
0	1868660	1281	192
0	1869976	1282	105
0	1871206	1283	111
0	1872563	1284	128
0	1873771	1285	119
0	1875248	1286	126
0	1876595	1287	126
0	1877622	1288	114
0	1879022	1289	145
0	1880706	1290	164
0	1882221	1291	122
0	1883648	1292	122
0	1885221	1293	146
0	1886710	1294	140
0	1888128	1295	125
0	1889665	1296	144
0	1891012	1297	138
0	1892269	1298	104
0	1893660	1299	134
0	1894865	1300	103
0	1896399	1301	147
0	1897341	1302	95
0	1898834	1303	136
0	1900118	1304	139
0	1901530	1305	135
0	1902690	1306	111
0	1904119	1307	130
0	1905694	1308	144
0	1907332	1309	173
0	1908941	1310	143
0	1910159	1311	101
0	1911718	1312	134
0	1913374	1313	163
0	1914664	1314	123
0	1916025	1315	134
0	1917417	1316	147
0	1918653	1317	125
0	1920260	1318	150
0	1921600	1319	127
0	1923064	1320	130
0	1924736	1321	179
0	1926051	1322	130
0	1927393	1323	121
0	1928818	1324	140
0	1930678	1325	201
0	1932184	1326	133
0	1933568	1327	131
0	1935085	1328	132
0	1936460	1329	106
0	1937821	1330	117
0	1939446	1331	156
0	1940672	1332	117
0	1942241	1333	132
0	1943910	1334	152
0	1945449	1335	142
0	1946901	1336	121
0	1948278	1337	114
0	1949915	1338	170
0	1951410	1339	150
0	1953258	1340	186
0	1954924	1341	179
0	1956235	1342	114
0	1957887	1343	163
0	1959269	1344	145
0	1960476	1345	112
0	1961698	1346	111
0	1962868	1347	111
0	1964252	1348	125
0	1965977	1349	170
0	1967682	1350	169
0	1969151	1351	130
0	1970785	1352	141
0	1972140	1353	122
0	1973959	1354	176
0	1975443	1355	163
0	1976716	1356	140
0	1978181	1357	146
0	1979612	1358	140
0	1981157	1359	160
0	1982540	1360	135
0	1984329	1361	198
0	1985675	1362	131
0	1987143	1363	133
0	1988852	1364	176
0	1990377	1365	134
0	1991928	1366	158
0	1993369	1367	136
0	1994656	1368	132
0	1996318	1369	169
0	1997716	1370	142
0	1999093	1371	130
0	2000628	1372	158
0	2002167	1373	146
0	2003636	1374	144
0	2004949	1375	128
0	2006489	1376	143
0	2008075	1377	161
0	2009414	1378	126
0	2010802	1379	137
0	2012535	1380	157
0	2014333	1381	165
0	2015763	1382	149
0	2017384	1383	158
0	2018775	1384	130
0	2020148	1385	130
0	2021448	1386	135
0	2023095	1387	160
0	2024688	1388	166
0	2026573	1389	188
0	2027799	1390	110
0	2029453	1391	151
0	2030741	1392	117
0	2032137	1393	129
0	2033431	1394	127
0	2034651	1395	117
0	2035794	1396	106
0	2037372	1397	147
0	2038544	1398	111
0	2039743	1399	116
0	2041095	1400	122
0	2042580	1401	134
0	2043920	1402	123
0	2045339	1403	144
0	2046964	1404	148
0	2048251	1405	118
0	2049825	1406	169
0	2051446	1407	162
0	2052785	1408	128
0	2054481	1409	171
0	2055808	1410	103
0	2057086	1411	121
0	2058492	1412	147
0	2059960	1413	149
0	2061472	1414	143
0	2062825	1415	122
0	2063913	1416	113
0	2065449	1417	159
0	2066797	1418	141
0	2068180	1419	128
0	2069840	1420	136
0	2071382	1421	145
0	2073275	1422	216
0	2074705	1423	125
0	2076022	1424	152
0	2077420	1425	135
0	2078882	1426	131
0	2080147	1427	108
0	2081801	1428	151
0	2083163	1429	127
0	2084810	1430	147
0	2086258	1431	139
0	2087621	1432	116
0	2089025	1433	133
0	2090452	1434	136
0	2092135	1435	168
0	2094148	1436	208
0	2095542	1437	151
0	2097256	1438	157
0	2098713	1439	138
0	2100085	1440	130
0	2101540	1441	156
0	2103085	1442	160
0	2104837	1443	175
0	2106141	1444	127
0	2107125	1445	87
0	2108536	1446	120
0	2110039	1447	128
0	2111349	1448	129
0	2112827	1449	157
0	2114555	1450	158
0	2115940	1451	144
0	2117454	1452	137
0	2119283	1453	156
0	2120596	1454	136
0	2122063	1455	136
0	2123565	1456	137
0	2125014	1457	152
0	2126312	1458	115
0	2127472	1459	129
0	2128839	1460	137
0	2130439	1461	171
0	2132037	1462	149
0	2133568	1463	146
0	2135239	1464	162
0	2136856	1465	154
0	2138429	1466	140
0	2140030	1467	146
0	2141429	1468	124
0	2142908	1469	146
0	2144075	1470	117
0	2145704	1471	152
0	2147009	1472	130
0	2148554	1473	140
0	2149932	1474	139
0	2151574	1475	157
0	2152981	1476	138
0	2154420	1477	136
0	2155792	1478	157
0	2157126	1479	129
0	2158657	1480	139
0	2160134	1481	150
0	2161687	1482	162
0	2163137	1483	131
0	2164677	1484	145
0	2165955	1485	135
0	2167113	1486	115
0	2168532	1487	122
0	2170337	1488	184
0	2171874	1489	144
0	2173528	1490	166
0	2175361	1491	174
0	2177251	1492	189
0	2178368	1493	104
0	2179586	1494	109
0	2180994	1495	115
0	2182486	1496	149
0	2183987	1497	144
0	2185451	1498	127
0	2187314	1499	178
0	2188704	1500	144
0	2190330	1501	147
0	2191684	1502	123
0	2193041	1503	144
0	2194161	1504	99
0	2195491	1505	139
0	2196880	1506	124
0	2198287	1507	138
0	2199977	1508	165
0	2201580	1509	162
0	2202962	1510	130
0	2204647	1511	160
0	2206060	1512	130
0	2207539	1513	148
0	2208975	1514	137
0	2210309	1515	119
0	2211958	1516	160
0	2213786	1517	183
0	2214934	1518	97
0	2216656	1519	177
0	2218247	1520	149
0	2219973	1521	163
0	2221183	1522	95
0	2222489	1523	121
0	2223702	1524	114
0	2225195	1525	142
0	2226699	1526	151
0	2228457	1527	149
0	2229888	1528	128
0	2231248	1529	133
0	2232817	1530	149
0	2234283	1531	145
0	2235755	1532	161
0	2237069	1533	125
0	2238538	1534	128
0	2239866	1535	111
0	2241389	1536	166
0	2242655	1537	123
0	2244581	1538	173
0	2245941	1539	127
0	2247749	1540	182
0	2249625	1541	211
0	2250934	1542	128
0	2252376	1543	139
0	2253929	1544	156
0	2255445	1545	151
0	2256808	1546	132
0	2258192	1547	119
0	2259619	1548	126
0	2261152	1549	166
0	2262965	1550	183
0	2264699	1551	171
0	2266386	1552	154
0	2267641	1553	130
0	2269422	1554	160
0	2270628	1555	103
0	2272172	1556	137
0	2273623	1557	150
0	2274902	1558	114
0	2276179	1559	140
0	2277672	1560	139
0	2279100	1561	149
0	2280333	1562	104
0	2281826	1563	120
0	2283251	1564	144
0	2284758	1565	130
0	2286109	1566	134
0	2287670	1567	140
0	2289186	1568	153
0	2290797	1569	162
0	2292013	1570	118
0	2293817	1571	161
0	2295406	1572	154
0	2296680	1573	137
0	2298377	1574	162
0	2299720	1575	122
0	2300959	1576	108
0	2302184	1577	100
0	2303637	1578	156
0	2305082	1579	126
0	2306505	1580	141
0	2308188	1581	188
0	2309242	1582	93
0	2310600	1583	127
0	2312608	1584	203
0	2314024	1585	131
0	2315801	1586	178
0	2317203	1587	113
0	2318739	1588	155
0	2319963	1589	123
0	2321426	1590	133
0	2323030	1591	147
0	2324828	1592	155
0	2326328	1593	147
0	2327926	1594	159
0	2329256	1595	127
0	2330919	1596	178
0	2332465	1597	157
0	2333897	1598	123
0	2335237	1599	127
0	2336645	1600	136
0	2337964	1601	114
0	2339712	1602	151
0	2341120	1603	127
0	2342713	1604	162
0	2344492	1605	162
0	2346016	1606	149
0	2347464	1607	145
0	2349190	1608	151
0	2350811	1609	160
0	2352248	1610	123
0	2353588	1611	139
0	2354820	1612	111
0	2356508	1613	181
0	2357949	1614	142
0	2359499	1615	137