version 3
run SimulationTime-229-20240108-13:22:05-5028
attr configname SimulationTime
attr datetime 20240108-13:22:05
attr datetimef 20240108-132205
attr experiment SimulationTime
attr inifile omnetpp.ini
attr iterationvars ""
attr iterationvarsd ""
attr iterationvarsf ""
attr measurement ""
attr network System
attr processid 5028
attr repetition 229
attr replication #229
attr resultdir results
attr runnumber 229
attr seedset 229
config **.cpu.rate 1000
config **.hd.rateProcessing 250
config **.webServer.web_server_rate 100
config **.p1 0.35
config **.p2 0.40
config network System
config num-rngs 4
config **.cpu.rng-0 0
config **.cpu.rng-1 1
config **.hd.rng-0 2
config **.webServer.rng-0 3
config repeat 500
config seed-set 229
config sim-time-limit 10000s
config **.client.numClients 40

vector 0 System.server.cpu requestCounterStat:vector ETV
attr recordingmode vector
attr source requestCounter
vector 1 System.server.hd utilizationHdStat:vector ETV
attr recordingmode vector
attr source utilizationHd
vector 2 System.server.cpu utilizationCpuStat:vector ETV
attr recordingmode vector
attr source utilizationCpu
vector 3 System.webServer utilizationWsStat:vector ETV
attr recordingmode vector
attr source utilizationWs
0	1949	1	188
0	3260	2	130
0	4853	3	158
0	6346	4	142
0	7491	5	120
0	8924	6	132
0	10390	7	159
0	12002	8	143
0	13550	9	147
0	15096	10	142
0	16600	11	133
0	17869	12	112
0	19133	13	107
0	20832	14	180
0	22198	15	127
0	23860	16	147
0	25602	17	179
0	26781	18	110
0	28273	19	145
0	29694	20	147
0	31297	21	160
0	32694	22	126
0	33987	23	134
0	35358	24	144
0	36928	25	163
0	38412	26	141
0	40011	27	140
0	41457	28	149
0	42877	29	141
0	44011	30	120
0	45345	31	121
0	46820	32	118
0	47925	33	104
0	49215	34	107
0	50679	35	157
0	52256	36	160
0	54011	37	158
0	55472	38	132
0	57218	39	179
0	58575	40	139
0	60134	41	134
0	61380	42	125
0	62563	43	104
0	64337	44	179
0	65868	45	156
0	67356	46	135
0	68669	47	120
0	70064	48	146
0	71364	49	117
0	73068	50	162
0	74556	51	137
0	75745	52	122
0	77265	53	131
0	78933	54	163
0	80727	55	197
0	81834	56	96
0	83147	57	118
0	84615	58	159
0	86089	59	153
0	87686	60	153
0	89587	61	204
0	91053	62	147
0	92616	63	158
0	94000	64	121
0	95542	65	151
0	96753	66	112
0	98401	67	159
0	99815	68	135
0	101251	69	149
0	102690	70	145
0	104243	71	152
0	105702	72	146
0	107244	73	143
0	108686	74	127
0	110286	75	161
0	111727	76	156
0	112874	77	96
0	114333	78	140
0	115647	79	119
0	117155	80	136
0	118600	81	136
0	120312	82	157
0	121696	83	121
0	122822	84	95
0	124065	85	102
0	125439	86	135
0	127298	87	194
0	128186	88	69
0	129830	89	165
0	131108	90	134
0	132591	91	142
0	133922	92	128
0	135821	93	172
0	137101	94	117
0	138582	95	136
0	139980	96	119
0	141399	97	116
0	142765	98	139
0	144094	99	138
0	145390	100	134
0	147098	101	203
0	148636	102	139
0	149899	103	120
0	151190	104	132
0	152511	105	120
0	153816	106	116
0	155215	107	130
0	156907	108	169
0	158464	109	154
0	160040	110	162
0	161481	111	140
0	162996	112	146
0	164340	113	137
0	166240	114	193
0	167733	115	144
0	169049	116	117
0	170307	117	105
0	171754	118	132
0	173044	119	131
0	174650	120	150
0	175862	121	107
0	177562	122	157
0	178814	123	123
0	180337	124	142
0	181835	125	137
0	183374	126	164
0	185052	127	157
0	186374	128	129
0	187593	129	120
0	189184	130	145
0	190694	131	135
0	192033	132	120
0	193596	133	158
0	195102	134	155
0	196454	135	109
0	197696	136	131
0	199281	137	172
0	200758	138	132
0	202448	139	173
0	203872	140	148
0	205577	141	174
0	207125	142	159
0	208388	143	116
0	209774	144	139
0	211360	145	133
0	212737	146	122
0	214436	147	164
0	215936	148	167
0	217876	149	199
0	219095	150	91
0	220560	151	140
0	222195	152	174
0	223656	153	136
0	225398	154	197
0	227097	155	166
0	228732	156	172
0	230172	157	153
0	231598	158	127
0	233087	159	160
0	234271	160	106
0	235869	161	153
0	237385	162	167
0	238742	163	140
0	240030	164	129
0	241552	165	143
0	243064	166	167
0	244582	167	151
0	246081	168	138
0	247515	169	133
0	248940	170	125
0	250480	171	135
0	251684	172	103
0	253245	173	164
0	255024	174	170
0	256762	175	187
0	258621	176	192
0	260097	177	151
0	261618	178	148
0	262973	179	134
0	264306	180	131
0	265831	181	136
0	267072	182	112
0	268565	183	130
0	269931	184	111
0	271709	185	199
0	273382	186	176
0	275043	187	164
0	276560	188	140
0	278161	189	170
0	279561	190	128
0	280970	191	110
0	282419	192	134
0	283879	193	123
0	285035	194	95
0	286430	195	142
0	287571	196	104
0	288735	197	91
0	290227	198	151
0	291595	199	113
0	292801	200	126
0	294020	201	126
0	295254	202	119
0	296666	203	123
0	297837	204	104
0	299257	205	113
0	300587	206	127
0	302143	207	147
0	303225	208	99
0	304564	209	124
0	305905	210	127
0	307405	211	145
0	308692	212	118
0	310296	213	135
0	311548	214	115
0	313118	215	159
0	315023	216	204
0	316596	217	164
0	317872	218	117
0	319710	219	177
0	321535	220	201
0	322779	221	109
0	324621	222	179
0	326148	223	138
0	327688	224	139
0	329019	225	128
0	330388	226	140
0	331973	227	144
0	333419	228	127
0	334874	229	138
0	336216	230	124
0	337975	231	172
0	339278	232	126
0	340742	233	157
0	342363	234	158
0	343999	235	171
0	345435	236	137
0	346949	237	147
0	348236	238	124
0	349734	239	153
0	351205	240	133
0	352283	241	119
0	354185	242	179
0	355495	243	123
0	357003	244	145
0	358416	245	138
0	359681	246	132
0	361150	247	142
0	362408	248	119
0	364183	249	186
0	365362	250	105
0	366755	251	122
0	367953	252	101
0	369747	253	159
0	371519	254	177
0	372738	255	102
0	374397	256	174
0	375931	257	137
0	377464	258	138
0	379011	259	166
0	380416	260	127
0	381942	261	141
0	383353	262	136
0	385059	263	157
0	386848	264	178
0	388050	265	119
0	389605	266	154
0	391041	267	139
0	392431	268	127
0	393738	269	108
0	395314	270	150
0	396439	271	112
0	397996	272	150
0	399661	273	162
0	401339	274	169
0	402779	275	145
0	404262	276	140
0	405650	277	143
0	407076	278	137
0	408410	279	125
0	409975	280	151
0	411288	281	124
0	412548	282	113
0	414101	283	160
0	415724	284	158
0	417227	285	146
0	419262	286	196
0	420874	287	157
0	422375	288	152
0	423719	289	111
0	425338	290	139
0	426946	291	167
0	428584	292	141
0	430056	293	133
0	431572	294	135
0	433089	295	152
0	434533	296	131
0	436125	297	151
0	437788	298	160
0	439470	299	165
0	440938	300	132
0	442368	301	155
0	443822	302	151
0	445388	303	141
0	446919	304	140
0	448211	305	119
0	449953	306	169
0	451517	307	155
0	452950	308	132
0	454555	309	168
0	456249	310	170
0	457649	311	127
0	459365	312	169
0	460844	313	126
0	462362	314	139
0	463743	315	140
0	465497	316	179
0	466944	317	150
0	468284	318	121
0	469684	319	109
0	471051	320	127
0	472536	321	134
0	473897	322	136
0	475064	323	102
0	476742	324	147
0	477815	325	108
0	479226	326	148
0	480433	327	100
0	481779	328	123
0	483242	329	138
0	484749	330	117
0	486061	331	129
0	487470	332	138
0	488858	333	123
0	490228	334	135
0	491683	335	154
0	493266	336	154
0	494857	337	134
0	496261	338	157
0	498209	339	197
0	499619	340	122
0	500924	341	124
0	502629	342	168
0	504387	343	175
0	506014	344	162
0	507628	345	167
0	508997	346	140
0	510713	347	163
0	512088	348	118
0	513858	349	183
0	515717	350	183
0	517384	351	146
0	518697	352	112
0	520046	353	116
0	521724	354	155
0	523186	355	139
0	524599	356	128
0	525913	357	131
0	527650	358	172
0	528905	359	116
0	530368	360	147
0	531868	361	145
0	533316	362	125
0	534834	363	145
0	536612	364	173
0	538318	365	177
0	539709	366	134
0	541020	367	122
0	542546	368	155
0	543476	369	79
0	545118	370	164
0	546925	371	172
0	548175	372	125
0	550082	373	194
0	551587	374	124
0	552960	375	136
0	554259	376	134
0	555767	377	153
0	557112	378	140
0	558325	379	114
0	559592	380	127
0	561293	381	170
0	562726	382	138
0	564226	383	153
0	565936	384	161
0	567631	385	154
0	569165	386	139
0	570782	387	142
0	572149	388	122
0	573494	389	136
0	575323	390	195
0	576666	391	138
0	577718	392	89
0	579470	393	173
0	581053	394	146
0	582484	395	132
0	583819	396	136
0	584976	397	100
0	586304	398	125
0	587816	399	141
0	589695	400	197
0	591140	401	144
0	593078	402	183
0	594729	403	158
0	596088	404	128
0	597580	405	159
0	598914	406	119
0	600186	407	115
0	601586	408	129
0	603005	409	132
0	604341	410	128
0	605916	411	146
0	607319	412	134
0	608391	413	97
0	609540	414	96
0	610701	415	114
0	612048	416	136
0	613299	417	122
0	614904	418	152
0	616111	419	110
0	617585	420	146
0	618986	421	122
0	620349	422	136
0	621667	423	117
0	623617	424	195
0	625180	425	140
0	626455	426	122
0	627918	427	136
0	629412	428	133
0	631070	429	157
0	632890	430	188
0	634074	431	105
0	635499	432	134
0	636626	433	102
0	637992	434	135
0	639262	435	115
0	640770	436	161
0	642241	437	154
0	643509	438	119
0	644647	439	105
0	645912	440	109
0	647342	441	125
0	648631	442	116
0	649961	443	141
0	651599	444	163
0	653046	445	136
0	654565	446	152
0	655908	447	104
0	657317	448	124
0	658691	449	123
0	659812	450	97
0	661162	451	133
0	662445	452	118
0	663692	453	112
0	665093	454	152
0	666510	455	138
0	667840	456	117
0	669287	457	134
0	670892	458	154
0	672837	459	188
0	674236	460	113
0	675445	461	104
0	676807	462	139
0	678110	463	138
0	679662	464	147
0	681047	465	114
0	682395	466	121
0	683568	467	116
0	684965	468	114
0	686507	469	147
0	688125	470	180
0	689465	471	117
0	691179	472	173
0	692917	473	183
0	694754	474	194
0	696011	475	120
0	697391	476	163
0	698690	477	124
0	700143	478	142
0	701598	479	140
0	703176	480	134
0	704495	481	114
0	705970	482	138
0	707032	483	107
0	708406	484	127
0	709647	485	118
0	711175	486	149
0	712568	487	130
0	713952	488	137
0	715196	489	125
0	716940	490	164
0	718339	491	136
0	720220	492	202
0	721480	493	131
0	722972	494	153
0	724526	495	165
0	725783	496	132
0	727222	497	150
0	728827	498	146
0	730215	499	133
0	731829	500	170
0	733088	501	116
0	734660	502	133
0	736300	503	149
0	737830	504	135
0	739455	505	162
0	740908	506	142
0	742628	507	161
0	743790	508	119
0	745038	509	105
0	746319	510	103
0	747658	511	134
0	749007	512	120
0	750520	513	152
0	752098	514	139
0	753299	515	108
0	754690	516	120
0	756158	517	155
0	757682	518	129
0	758862	519	113
0	760726	520	190
0	761954	521	103
0	763137	522	106
0	764416	523	120
0	765998	524	153
0	767431	525	116
0	768602	526	100
0	769789	527	112
0	771290	528	136
0	772703	529	132
0	774229	530	138
0	775626	531	140
0	777044	532	137
0	778395	533	136
0	779806	534	126
0	780980	535	95
0	782087	536	92
0	783833	537	177
0	785123	538	117
0	786573	539	159
0	787796	540	111
0	789318	541	155
0	790752	542	149
0	792271	543	140
0	793928	544	182
0	795102	545	113
0	796299	546	110
0	797855	547	157
0	799409	548	161
0	800658	549	148
0	802357	550	167
0	803910	551	150
0	805305	552	130
0	807114	553	176
0	808820	554	153
0	810520	555	189
0	812116	556	141
0	813336	557	107
0	814991	558	160
0	816604	559	148
0	818022	560	130
0	819557	561	164
0	820878	562	116
0	822660	563	179
0	824119	564	144
0	825647	565	137
0	827124	566	136
0	828456	567	117
0	830042	568	151
0	831464	569	143
0	832949	570	137
0	834840	571	176
0	836334	572	155
0	837948	573	157
0	839263	574	130
0	841045	575	167
0	842550	576	148
0	844169	577	170
0	845819	578	175
0	846928	579	106
0	848270	580	120
0	849758	581	135
0	851068	582	109
0	852223	583	106
0	853445	584	115
0	854876	585	154
0	856256	586	117
0	857748	587	141
0	859176	588	125
0	860563	589	126
0	861839	590	116
0	863374	591	142
0	864862	592	111
0	866206	593	117
0	867807	594	166
0	869325	595	147
0	870997	596	149
0	872725	597	165
0	873845	598	89
0	875402	599	152
0	876652	600	104
0	878186	601	141
0	879593	602	150
0	881168	603	158
0	882506	604	115
0	883628	605	91
0	885026	606	139
0	886526	607	141
0	888136	608	157
0	889624	609	129
0	890829	610	101
0	892130	611	124
0	893567	612	144
0	895112	613	152
0	896464	614	113
0	898106	615	151
0	899482	616	125
0	900886	617	129
0	902508	618	155
0	903847	619	122
0	905310	620	153
0	906728	621	119
0	908107	622	130
0	909364	623	112
0	910863	624	156
0	912186	625	122
0	913543	626	126
0	914915	627	137
0	916543	628	149
0	918100	629	140
0	919427	630	133
0	921057	631	151
0	922332	632	108
0	923801	633	122
0	924968	634	106
0	926286	635	119
0	927664	636	145
0	929376	637	167
0	930832	638	137
0	932503	639	146
0	934111	640	156
0	935698	641	156
0	937528	642	191
0	939129	643	158
0	940280	644	112
0	941724	645	133
0	943279	646	148
0	944658	647	146
0	946293	648	140
0	947614	649	136
0	949287	650	155
0	950873	651	153
0	952378	652	158
0	953722	653	121
0	955187	654	150
0	956542	655	138
0	957987	656	126
0	959642	657	166
0	961002	658	117
0	962389	659	122
0	964136	660	153
0	965434	661	121
0	966963	662	160
0	968366	663	126
0	969875	664	138
0	971473	665	143
0	972873	666	119
0	974147	667	115
0	975461	668	123
0	977101	669	145
0	978344	670	117
0	979644	671	117
0	981073	672	124
0	982164	673	114
0	983746	674	161
0	985282	675	143
0	986567	676	114
0	988197	677	155
0	989451	678	129
0	991136	679	164
0	992441	680	123
0	993730	681	124
0	995183	682	124
0	996592	683	124
0	998177	684	156
0	999820	685	172
0	1001165	686	144
0	1002571	687	131
0	1003943	688	127
0	1005524	689	158
0	1007082	690	138
0	1008609	691	148
0	1010192	692	164
0	1011830	693	157
0	1013534	694	177
0	1014995	695	140
0	1016411	696	129
0	1017852	697	138
0	1019074	698	111
0	1020384	699	133
0	1022109	700	179
0	1023876	701	188
0	1025276	702	141
0	1026781	703	142
0	1028105	704	133
0	1029645	705	153
0	1031517	706	175
0	1032740	707	100
0	1034185	708	136
0	1035891	709	173
0	1037286	710	139
0	1038865	711	154
0	1040175	712	131
0	1041512	713	120
0	1042914	714	131
0	1044397	715	138
0	1045549	716	109
0	1047059	717	147
0	1048839	718	177
0	1050357	719	135
0	1051846	720	133
0	1053208	721	129
0	1054678	722	157
0	1055817	723	102
0	1057364	724	160
0	1058603	725	132
0	1060280	726	158
0	1061695	727	138
0	1063118	728	114
0	1064480	729	127
0	1065954	730	156
0	1067414	731	135
0	1068751	732	136
0	1070290	733	140
0	1071964	734	157
0	1073204	735	117
0	1074671	736	146
0	1076216	737	156
0	1077544	738	125
0	1079184	739	161
0	1080421	740	99
0	1082166	741	168
0	1083750	742	157
0	1085273	743	142
0	1086996	744	180
0	1088242	745	117
0	1089626	746	133
0	1090775	747	112
0	1092248	748	148
0	1093605	749	108
0	1095279	750	150
0	1096683	751	121
0	1098286	752	166
0	1099382	753	107
0	1100886	754	139
0	1102419	755	148
0	1104169	756	163
0	1105492	757	136
0	1106730	758	135
0	1108219	759	138
0	1109997	760	174
0	1111470	761	136
0	1112718	762	123
0	1114488	763	175
0	1115923	764	126
0	1117691	765	143
0	1118865	766	111
0	1120226	767	124
0	1121719	768	146
0	1123243	769	143
0	1124701	770	144
0	1126029	771	111
0	1127463	772	139
0	1128790	773	122
0	1130310	774	149
0	1131788	775	143
0	1133131	776	128
0	1134569	777	129
0	1136060	778	150
0	1137587	779	128
0	1139083	780	134
0	1140451	781	133
0	1142050	782	144
0	1143557	783	142
0	1145173	784	151
0	1146798	785	162
0	1148222	786	123
0	1149382	787	101
0	1150826	788	133
0	1152076	789	103
0	1153539	790	153
0	1154744	791	116
0	1156334	792	155
0	1157522	793	123
0	1158912	794	137
0	1160407	795	166
0	1161984	796	148
0	1163029	797	100
0	1164609	798	169
0	1166023	799	151
0	1167326	800	125
0	1168709	801	134
0	1170316	802	150
0	1171919	803	134
0	1173846	804	178
0	1175254	805	141
0	1176733	806	150
0	1177951	807	119
0	1179257	808	107
0	1180816	809	158
0	1182464	810	154
0	1184252	811	191
0	1185753	812	138
0	1187155	813	137
0	1188615	814	141
0	1190008	815	128
0	1191392	816	129
0	1192877	817	144
0	1194737	818	173
0	1196520	819	166
0	1197785	820	107
0	1199182	821	134
0	1200689	822	128
0	1202474	823	192
0	1203798	824	131
0	1205141	825	148
0	1206356	826	114
0	1207775	827	130
0	1209779	828	197
0	1211151	829	129
0	1212784	830	157
0	1214238	831	149
0	1215845	832	162
0	1217209	833	137
0	1218499	834	115
0	1220132	835	160
0	1221570	836	123
0	1222818	837	117
0	1224364	838	155
0	1226018	839	151
0	1227893	840	181
0	1229353	841	129
0	1230975	842	155
0	1232374	843	134
0	1233544	844	119
0	1234995	845	142
0	1236884	846	176
0	1238481	847	148
0	1240063	848	145
0	1241478	849	128
0	1243451	850	203
0	1245031	851	149
0	1246622	852	148
0	1248268	853	157
0	1249556	854	131
0	1250779	855	116
0	1252259	856	137
0	1253799	857	145
0	1255434	858	162
0	1256963	859	152
0	1258745	860	166
0	1260397	861	175
0	1261859	862	161
0	1263295	863	133
0	1264727	864	135
0	1266530	865	176
0	1267851	866	128
0	1269240	867	140
0	1270534	868	123
0	1272111	869	140
0	1273525	870	130
0	1275081	871	163
0	1276630	872	140
0	1278038	873	125
0	1279449	874	130
0	1280865	875	141
0	1282371	876	159
0	1283762	877	118
0	1285195	878	146
0	1286633	879	133
0	1288067	880	142
0	1289847	881	199
0	1291149	882	119
0	1292742	883	160
0	1294146	884	143
0	1295793	885	166
0	1297099	886	129
0	1298508	887	132
0	1300081	888	162
0	1301529	889	123
0	1302849	890	118
0	1304315	891	137
0	1305469	892	99
0	1306974	893	146
0	1308284	894	129
0	1309695	895	130
0	1311061	896	123
0	1312367	897	107
0	1313965	898	149
0	1315552	899	154
0	1317256	900	158
0	1318616	901	129
0	1320041	902	142
0	1321461	903	119
0	1323198	904	150
0	1324788	905	135
0	1326248	906	123
0	1327976	907	169
0	1329245	908	108
0	1330871	909	159
0	1332052	910	117
0	1333762	911	137
0	1334963	912	106
0	1336389	913	133
0	1338047	914	161
0	1339396	915	126
0	1341016	916	153
0	1342549	917	150
0	1344235	918	195
0	1345289	919	99
0	1346993	920	150
0	1348692	921	160
0	1350364	922	159
0	1351983	923	162
0	1353538	924	158
0	1354889	925	142
0	1356328	926	148
0	1357938	927	157
0	1359412	928	137
0	1361029	929	160
0	1362562	930	145
0	1363931	931	132
0	1365565	932	161
0	1366685	933	79
0	1368099	934	119
0	1369954	935	202
0	1371792	936	191
0	1373157	937	122
0	1374925	938	167
0	1376456	939	122
0	1378128	940	158
0	1379551	941	140
0	1381188	942	160
0	1382706	943	143
0	1383727	944	94
0	1385304	945	164
0	1386627	946	124
0	1388272	947	156
0	1389876	948	143
0	1391561	949	170
0	1392742	950	111
0	1394407	951	148
0	1395981	952	167
0	1397027	953	101
0	1398731	954	179
0	1400443	955	171
0	1401886	956	136
0	1403088	957	123
0	1404791	958	166
0	1406311	959	149
0	1407589	960	114
0	1408938	961	136
0	1410291	962	136
0	1411524	963	116
0	1412886	964	135
0	1414434	965	137
0	1415638	966	107
0	1416874	967	139
0	1418410	968	127
0	1419992	969	161
0	1421335	970	147
0	1422567	971	107
0	1423846	972	122
0	1425114	973	125
0	1426836	974	175
0	1428567	975	174
0	1429897	976	115
0	1431284	977	130
0	1433033	978	170
0	1434400	979	120
0	1436108	980	200
0	1437619	981	156
0	1439387	982	171
0	1440531	983	105
0	1441679	984	109
0	1443316	985	160
0	1444771	986	140
0	1446256	987	138
0	1447856	988	149
0	1449229	989	112
0	1450802	990	131
0	1452055	991	120
0	1453672	992	148
0	1455431	993	174
0	1456950	994	146
0	1458770	995	169
0	1460320	996	143
0	1461753	997	124
0	1463208	998	148
0	1465015	999	164
0	1466373	1000	142
0	1468128	1001	176
0	1469492	1002	131
0	1470839	1003	124
0	1472205	1004	117
0	1473703	1005	155
0	1475301	1006	165
0	1476837	1007	135
0	1478458	1008	156
0	1479608	1009	113
0	1481184	1010	158
0	1482489	1011	100
0	1484120	1012	174
0	1485937	1013	176
0	1487474	1014	152
0	1488785	1015	120
0	1490185	1016	125
0	1491759	1017	141
0	1492997	1018	115
0	1494518	1019	156
0	1496079	1020	151
0	1497502	1021	132
0	1498819	1022	128
0	1500030	1023	116
0	1501831	1024	164
0	1503065	1025	123
0	1504767	1026	181
0	1506325	1027	197
0	1508019	1028	163
0	1509489	1029	129
0	1510855	1030	114
0	1512408	1031	154
0	1513710	1032	123
0	1514957	1033	118
0	1516550	1034	152
0	1518015	1035	148
0	1519426	1036	126
0	1520632	1037	111
0	1521808	1038	99
0	1522907	1039	124
0	1524280	1040	117
0	1525555	1041	126
0	1526849	1042	111
0	1528252	1043	126
0	1529390	1044	109
0	1530915	1045	144
0	1532373	1046	135
0	1534122	1047	172
0	1535767	1048	164
0	1537203	1049	139
0	1538521	1050	130
0	1539745	1051	99
0	1541357	1052	169
0	1542837	1053	153
0	1544372	1054	142
0	1545820	1055	149
0	1547123	1056	120
0	1548394	1057	110
0	1549472	1058	107
0	1551083	1059	162
0	1552726	1060	143
0	1554228	1061	149
0	1555598	1062	129
0	1557287	1063	156
0	1558946	1064	146
0	1560655	1065	180
0	1562671	1066	225
0	1564129	1067	143
0	1565444	1068	126
0	1566973	1069	152
0	1568516	1070	159
0	1569919	1071	148
0	1571114	1072	112
0	1572683	1073	142
0	1574203	1074	157
0	1575604	1075	132
0	1577249	1076	158
0	1578498	1077	108
0	1579976	1078	151
0	1581538	1079	157
0	1582699	1080	103
0	1584233	1081	149
0	1585409	1082	101
0	1586951	1083	161
0	1588600	1084	154
0	1590039	1085	144
0	1591446	1086	126
0	1593002	1087	149
0	1594771	1088	184
0	1596157	1089	131
0	1597615	1090	130
0	1598797	1091	115
0	1600285	1092	143
0	1601883	1093	149
0	1603195	1094	129
0	1604869	1095	143
0	1606482	1096	144
0	1608014	1097	135
0	1609503	1098	150
0	1610816	1099	128
0	1612131	1100	131
0	1613629	1101	145
0	1614865	1102	117
0	1616253	1103	137
0	1617471	1104	123
0	1619038	1105	152
0	1620702	1106	183
0	1622237	1107	156
0	1623530	1108	130
0	1624914	1109	125
0	1626325	1110	127
0	1627901	1111	151
0	1629352	1112	128
0	1630534	1113	113
0	1632290	1114	167
0	1633895	1115	168
0	1635280	1116	120
0	1636504	1117	111
0	1638039	1118	156
0	1639607	1119	143
0	1640883	1120	104
0	1642199	1121	129
0	1644008	1122	174
0	1645227	1123	118
0	1646813	1124	153
0	1647960	1125	112
0	1649502	1126	147
0	1651100	1127	145
0	1652540	1128	161
0	1653716	1129	111
0	1655124	1130	148
0	1656616	1131	159
0	1658120	1132	137
0	1659588	1133	139
0	1660925	1134	126
0	1662450	1135	152
0	1663884	1136	139
0	1665322	1137	139
0	1666937	1138	178
0	1668854	1139	188
0	1670016	1140	110
0	1671291	1141	106
0	1672459	1142	105
0	1673899	1143	133
0	1675597	1144	165
0	1676918	1145	126
0	1678029	1146	98
0	1679555	1147	159
0	1681039	1148	153
0	1682320	1149	108
0	1683846	1150	150
0	1685290	1151	141
0	1686712	1152	125
0	1687946	1153	125
0	1689307	1154	130
0	1690604	1155	114
0	1691856	1156	137
0	1693320	1157	115
0	1694678	1158	125
0	1696291	1159	154
0	1697722	1160	159
0	1699163	1161	152
0	1700587	1162	123
0	1702084	1163	140
0	1703410	1164	137
0	1704758	1165	143
0	1706040	1166	125
0	1707409	1167	124
0	1708795	1168	117
0	1710392	1169	144
0	1711922	1170	144
0	1713050	1171	101
0	1714348	1172	123
0	1715869	1173	134
0	1717279	1174	141
0	1718904	1175	172
0	1720187	1176	108
0	1721909	1177	157
0	1723273	1178	109
0	1724677	1179	139
0	1725891	1180	124
0	1727345	1181	119
0	1728967	1182	163
0	1730389	1183	149
0	1732025	1184	175
0	1733637	1185	149
0	1735428	1186	182
0	1736882	1187	155
0	1738386	1188	151
0	1739558	1189	117
0	1741037	1190	143
0	1742564	1191	162
0	1744217	1192	172
0	1745738	1193	150
0	1747370	1194	175
0	1748797	1195	126
0	1750271	1196	139
0	1751742	1197	162
0	1753042	1198	113
0	1754484	1199	117
0	1755831	1200	129
0	1757419	1201	169
0	1759226	1202	190
0	1760914	1203	155
0	1762557	1204	152
0	1764152	1205	164
0	1765402	1206	115
0	1766746	1207	131
0	1768162	1208	151
0	1769555	1209	140
0	1771029	1210	130
0	1772657	1211	167
0	1774042	1212	142
0	1775318	1213	131
0	1776674	1214	123
0	1777745	1215	98
0	1778982	1216	108
0	1780603	1217	158
0	1782210	1218	156
0	1783639	1219	122
0	1785127	1220	142
0	1786871	1221	211
0	1788214	1222	134
0	1789570	1223	143
0	1791082	1224	161
0	1792771	1225	164
0	1794422	1226	172
0	1796139	1227	152
0	1797941	1228	181
0	1799388	1229	146
0	1800804	1230	140
0	1802691	1231	192
0	1804132	1232	148
0	1805812	1233	179
0	1807214	1234	155
0	1808416	1235	113
0	1809815	1236	132
0	1811187	1237	127
0	1812520	1238	134
0	1814012	1239	125
0	1815049	1240	91
0	1816289	1241	123
0	1817963	1242	163
0	1819244	1243	130
0	1820450	1244	111
0	1821810	1245	121
0	1822817	1246	92
0	1824071	1247	111
0	1825453	1248	121
0	1826942	1249	150
0	1828464	1250	158
0	1829855	1251	128
0	1831185	1252	129
0	1833066	1253	172
0	1834648	1254	153
0	1836281	1255	184
0	1837575	1256	131
0	1839101	1257	147
0	1840465	1258	121
0	1841810	1259	128
0	1843307	1260	153
0	1844505	1261	129
0	1845883	1262	127
0	1847403	1263	129
0	1848715	1264	135
0	1850023	1265	131
0	1851337	1266	139
0	1852693	1267	129
0	1853909	1268	105
0	1855451	1269	137
0	1856762	1270	123
0	1857906	1271	103
0	1859181	1272	100
0	1860562	1273	128
0	1862045	1274	134
0	1863432	1275	132
0	1865134	1276	153
0	1866514	1277	131
0	1867895	1278	134
0	1869275	1279	123
0	1871114	1280	191
0	1872342	1281	121
0	1873866	1282	161
0	1874976	1283	107
0	1876282	1284	119
0	1877696	1285	133
0	1879262	1286	161
0	1880475	1287	104
0	1881828	1288	124
0	1883071	1289	118
0	1884600	1290	155
0	1886360	1291	177
0	1888394	1292	193
0	1889858	1293	135
0	1891204	1294	121
0	1892763	1295	136
0	1894144	1296	140
0	1895694	1297	123
0	1897010	1298	123
0	1898638	1299	163
0	1900365	1300	173
0	1901837	1301	141
0	1903435	1302	167
0	1904554	1303	114
0	1906075	1304	164
0	1907745	1305	167
0	1908874	1306	88
0	1910102	1307	121
0	1911679	1308	166
0	1912737	1309	101
0	1914291	1310	152
0	1916196	1311	200
0	1917749	1312	146
0	1918990	1313	132
0	1920345	1314	134
0	1921789	1315	139
0	1923118	1316	116
0	1924752	1317	153
0	1926180	1318	143
0	1927564	1319	135
0	1928849	1320	129
0	1930315	1321	129
0	1931639	1322	109
0	1933098	1323	118
0	1934429	1324	126
0	1935974	1325	148
0	1937272	1326	117
0	1938903	1327	156
0	1940726	1328	172
0	1941987	1329	130
0	1943217	1330	118
0	1944891	1331	163
0	1946424	1332	146
0	1947978	1333	161
0	1949650	1334	161
0	1951007	1335	132
0	1952461	1336	145
0	1953822	1337	122
0	1955067	1338	108
0	1956707	1339	173
0	1958356	1340	151
0	1959934	1341	131
0	1961586	1342	189
0	1963068	1343	143
0	1964684	1344	155
0	1966305	1345	144
0	1967541	1346	119
0	1969241	1347	177
0	1970668	1348	152
0	1971932	1349	107
0	1973284	1350	136
0	1974925	1351	188
0	1976584	1352	160
0	1978004	1353	151
0	1979439	1354	146
0	1980770	1355	126
0	1982435	1356	152
0	1983977	1357	131
0	1985448	1358	138
0	1987075	1359	172
0	1988555	1360	146
0	1990083	1361	153
0	1991644	1362	142
0	1993149	1363	146
0	1994782	1364	162
0	1996066	1365	113
0	1997438	1366	127
0	1999019	1367	166
0	2000744	1368	162
0	2002381	1369	136
0	2003821	1370	132
0	2005437	1371	147
0	2006503	1372	97
0	2007883	1373	143
0	2009687	1374	171
0	2011466	1375	176
0	2012739	1376	126
0	2014219	1377	151
0	2015833	1378	159
0	2017499	1379	153
0	2018766	1380	109
0	2020131	1381	140
0	2021710	1382	160
0	2022990	1383	119
0	2024560	1384	141
0	2026082	1385	161
0	2027601	1386	146
0	2029240	1387	170
0	2030621	1388	120
0	2032090	1389	132
0	2033801	1390	181
0	2035408	1391	158
0	2036690	1392	131
0	2038441	1393	194
0	2039873	1394	129
0	2041450	1395	140
0	2042632	1396	95
0	2044099	1397	138
0	2045737	1398	169
0	2047150	1399	132
0	2048443	1400	139
0	2049780	1401	126
0	2051306	1402	145
0	2052807	1403	150
0	2054222	1404	142
0	2055612	1405	123
0	2056890	1406	127
0	2058343	1407	162
0	2059891	1408	151
0	2061542	1409	182
0	2063151	1410	143
0	2064610	1411	146
0	2066405	1412	194
0	2068067	1413	159
0	2069685	1414	149
0	2071248	1415	140
0	2073222	1416	199
0	2074758	1417	129
0	2075965	1418	110
0	2077400	1419	144
0	2078589	1420	89
0	2079968	1421	124
0	2081420	1422	149
0	2082709	1423	110
0	2084106	1424	112
0	2085523	1425	144
0	2087082	1426	142
0	2088515	1427	138
0	2089904	1428	132
0	2091406	1429	149
0	2092628	1430	114
0	2094213	1431	172
0	2095608	1432	146
0	2096772	1433	103
0	2098352	1434	153
0	2099560	1435	113
0	2101241	1436	158
0	2102557	1437	161
0	2104184	1438	156
0	2105638	1439	153
0	2107151	1440	151
0	2108785	1441	147
0	2109916	1442	98
0	2111376	1443	133
0	2112731	1444	140
0	2114356	1445	174
0	2115550	1446	115
0	2117018	1447	145
0	2118281	1448	124
0	2119563	1449	117
0	2120941	1450	124
0	2122357	1451	119
0	2123982	1452	160
0	2125294	1453	137
0	2126699	1454	124
0	2128370	1455	174
0	2129924	1456	147
0	2131425	1457	144
0	2132863	1458	151
0	2134025	1459	115
0	2135163	1460	120
0	2136748	1461	150
0	2137950	1462	115
0	2139704	1463	181
0	2141282	1464	161
0	2142734	1465	133
0	2144116	1466	135
0	2145179	1467	102
0	2146646	1468	142
0	2147874	1469	113
0	2149744	1470	182
0	2151247	1471	142
0	2152771	1472	141
0	2154029	1473	115
0	2155211	1474	103
0	2156219	1475	103
0	2157737	1476	119
0	2159225	1477	149
0	2160744	1478	140
0	2161856	1479	119
0	2163416	1480	158
0	2164731	1481	122
0	2166121	1482	131
0	2167131	1483	107
0	2168544	1484	128
0	2170012	1485	137
0	2171339	1486	140
0	2172538	1487	110
0	2173717	1488	118
0	2175131	1489	113
0	2176194	1490	99
0	2177452	1491	119
0	2178754	1492	151
0	2180312	1493	161
0	2181714	1494	131
0	2182874	1495	101
0	2184148	1496	115
0	2185545	1497	132
0	2187146	1498	144
0	2188533	1499	136
0	2189845	1500	146
0	2191199	1501	109
0	2192495	1502	123
0	2193779	1503	129
0	2195140	1504	134
0	2196655	1505	152
0	2198008	1506	116
0	2199572	1507	161
0	2201173	1508	152
0	2202474	1509	132
0	2203963	1510	153
0	2205575	1511	141
0	2207162	1512	142
0	2208514	1513	119
0	2209928	1514	145
0	2211169	1515	106
0	2212374	1516	112
0	2213938	1517	145
0	2215474	1518	133
0	2217287	1519	184
0	2218888	1520	151
0	2220418	1521	137
0	2221941	1522	148
0	2223211	1523	115
0	2224585	1524	131
0	2225840	1525	118
0	2227264	1526	145
0	2228868	1527	161
0	2230185	1528	136
0	2231496	1529	132
0	2232579	1530	99
0	2233604	1531	102
0	2235103	1532	164
0	2236509	1533	131
0	2238120	1534	152
0	2239471	1535	120
0	2240958	1536	150
0	2242158	1537	121
0	2243477	1538	138
0	2245392	1539	194
0	2246856	1540	138
0	2248165	1541	122
0	2249907	1542	155
0	2251512	1543	160
0	2253308	1544	175
0	2254962	1545	163
0	2256511	1546	142
0	2257675	1547	113
0	2258915	1548	117
0	2260319	1549	129
0	2261325	1550	90
0	2262519	1551	101
0	2263989	1552	133
0	2265726	1553	184
0	2267145	1554	142
0	2268213	1555	93
0	2270101	1556	193
0	2271584	1557	146
0	2272662	1558	111
0	2274038	1559	137
0	2275342	1560	120
0	2277082	1561	189
0	2278701	1562	154
0	2280167	1563	135
0	2281383	1564	109
0	2282622	1565	114
0	2284379	1566	164
0	2285752	1567	124
0	2287126	1568	127
0	2288553	1569	144
0	2290065	1570	134
0	2291559	1571	145
0	2293251	1572	159
0	2294446	1573	104
0	2295753	1574	112
0	2297241	1575	141
0	2298754	1576	140
0	2300214	1577	129
0	2301759	1578	160
0	2303486	1579	158
0	2305177	1580	177
0	2306660	1581	134
0	2308184	1582	147
0	2309760	1583	157
0	2310980	1584	111
0	2312424	1585	159
0	2314170	1586	161
0	2315859	1587	168
0	2317376	1588	142
0	2318565	1589	124
0	2320214	1590	149
0	2321723	1591	144
0	2323452	1592	148
0	2324536	1593	85
0	2326011	1594	124
0	2327172	1595	110
0	2328338	1596	107
0	2329827	1597	144
0	2331592	1598	160
0	2333383	1599	178
0	2334854	1600	149
0	2336445	1601	150
0	2337959	1602	147
0	2339502	1603	162
0	2340984	1604	139
0	2342583	1605	158
0	2344159	1606	125
0	2345371	1607	113
0	2346955	1608	147
0	2348126	1609	102
0	2349506	1610	122
0	2350948	1611	151
0	2352393	1612	134
0	2353481	1613	99
0	2354867	1614	121