version 3
run SimulationTime-65-20240108-13:20:09-14684
attr configname SimulationTime
attr datetime 20240108-13:20:09
attr datetimef 20240108-132009
attr experiment SimulationTime
attr inifile omnetpp.ini
attr iterationvars ""
attr iterationvarsd ""
attr iterationvarsf ""
attr measurement ""
attr network System
attr processid 14684
attr repetition 65
attr replication #65
attr resultdir results
attr runnumber 65
attr seedset 65
config **.cpu.rate 1000
config **.hd.rateProcessing 250
config **.webServer.web_server_rate 100
config **.p1 0.35
config **.p2 0.40
config network System
config num-rngs 4
config **.cpu.rng-0 0
config **.cpu.rng-1 1
config **.hd.rng-0 2
config **.webServer.rng-0 3
config repeat 500
config seed-set 65
config sim-time-limit 10000s
config **.client.numClients 40

vector 0 System.server.cpu requestCounterStat:vector ETV
attr recordingmode vector
attr source requestCounter
vector 1 System.server.hd utilizationHdStat:vector ETV
attr recordingmode vector
attr source utilizationHd
vector 2 System.server.cpu utilizationCpuStat:vector ETV
attr recordingmode vector
attr source utilizationCpu
vector 3 System.webServer utilizationWsStat:vector ETV
attr recordingmode vector
attr source utilizationWs
0	1975	1	186
0	3369	2	127
0	4723	3	123
0	6228	4	152
0	7672	5	137
0	9314	6	151
0	10864	7	163
0	12315	8	134
0	13584	9	128
0	14767	10	121
0	15999	11	123
0	17362	12	136
0	18922	13	151
0	20207	14	118
0	21306	15	102
0	22461	16	114
0	24228	17	178
0	25400	18	109
0	26960	19	135
0	28071	20	119
0	29424	21	116
0	30703	22	122
0	32086	23	126
0	33454	24	133
0	34843	25	136
0	36034	26	102
0	37619	27	184
0	39061	28	147
0	40683	29	151
0	42191	30	148
0	43766	31	150
0	45288	32	159
0	46671	33	146
0	48165	34	131
0	49830	35	154
0	51431	36	154
0	52963	37	151
0	54581	38	161
0	56102	39	140
0	57357	40	99
0	59217	41	185
0	60583	42	139
0	62284	43	164
0	63982	44	149
0	65547	45	148
0	67080	46	148
0	68571	47	168
0	69869	48	109
0	71575	49	161
0	72909	50	128
0	74395	51	129
0	75755	52	127
0	77425	53	147
0	79048	54	166
0	80526	55	131
0	82081	56	142
0	83198	57	120
0	84321	58	98
0	85953	59	149
0	87638	60	167
0	89156	61	143
0	90981	62	166
0	92529	63	147
0	94082	64	154
0	95843	65	178
0	97124	66	104
0	98420	67	113
0	99744	68	117
0	101223	69	150
0	102750	70	129
0	104308	71	149
0	105924	72	165
0	107347	73	132
0	109006	74	154
0	110453	75	138
0	111895	76	143
0	113481	77	147
0	115156	78	162
0	116661	79	156
0	117873	80	110
0	119473	81	167
0	120901	82	141
0	122326	83	120
0	123626	84	117
0	124962	85	129
0	126921	86	210
0	128526	87	156
0	130065	88	138
0	131350	89	120
0	133127	90	181
0	134630	91	144
0	135967	92	128
0	137389	93	135
0	139161	94	169
0	140574	95	144
0	141886	96	117
0	143286	97	143
0	144889	98	168
0	146636	99	174
0	148411	100	167
0	149725	101	117
0	151234	102	148
0	153009	103	154
0	155015	104	211
0	156681	105	159
0	157901	106	125
0	159452	107	148
0	161287	108	160
0	162859	109	157
0	164279	110	134
0	165733	111	141
0	167334	112	164
0	168683	113	124
0	170125	114	131
0	171774	115	148
0	173132	116	131
0	174542	117	155
0	176116	118	153
0	177231	119	106
0	178965	120	200
0	180442	121	134
0	182074	122	159
0	183511	123	148
0	184941	124	135
0	186335	125	143
0	187942	126	160
0	189256	127	129
0	190889	128	152
0	192429	129	149
0	193909	130	146
0	195442	131	154
0	196744	132	121
0	197821	133	98
0	199269	134	125
0	201244	135	202
0	202961	136	168
0	204657	137	169
0	205865	138	117
0	207745	139	203
0	209202	140	137
0	210373	141	112
0	211904	142	144
0	213066	143	111
0	214346	144	121
0	215478	145	105
0	217239	146	174
0	218738	147	138
0	220229	148	154
0	221803	149	163
0	223543	150	174
0	225062	151	162
0	226370	152	127
0	227713	153	128
0	229032	154	132
0	230462	155	125
0	231660	156	103
0	232796	157	109
0	233847	158	92
0	235323	159	147
0	236649	160	106
0	238225	161	149
0	240009	162	169
0	241471	163	141
0	243041	164	149
0	244586	165	162
0	246056	166	149
0	247523	167	122
0	249132	168	164
0	250651	169	138
0	251778	170	101
0	253195	171	138
0	254263	172	99
0	255823	173	157
0	257297	174	147
0	258710	175	154
0	260416	176	169
0	261590	177	105
0	262711	178	94
0	264249	179	155
0	265934	180	153
0	267695	181	156
0	268959	182	117
0	270270	183	132
0	271662	184	123
0	273118	185	135
0	274548	186	119
0	276346	187	167
0	277886	188	149
0	279337	189	124
0	280910	190	153
0	282679	191	174
0	284129	192	133
0	285394	193	134
0	286976	194	153
0	288359	195	130
0	289729	196	147
0	291234	197	160
0	292608	198	119
0	293774	199	111
0	295311	200	143
0	296653	201	135
0	297944	202	114
0	299421	203	132
0	301318	204	190
0	302786	205	155
0	304367	206	134
0	305942	207	136
0	307195	208	112
0	308969	209	173
0	310236	210	123
0	312069	211	180
0	313447	212	159
0	314733	213	117
0	315998	214	106
0	317118	215	109
0	318516	216	127
0	319772	217	121
0	321274	218	135
0	322665	219	142
0	324074	220	131
0	325695	221	164
0	327262	222	146
0	328533	223	118
0	330170	224	156
0	331722	225	145
0	333133	226	130
0	334816	227	146
0	336332	228	133
0	337831	229	138
0	339165	230	126
0	340673	231	149
0	342276	232	162
0	343713	233	152
0	344992	234	102
0	346070	235	103
0	347568	236	137
0	348844	237	111
0	350064	238	109
0	351484	239	127
0	353343	240	169
0	355052	241	174
0	356636	242	147
0	358233	243	156
0	359530	244	102
0	361081	245	154
0	362776	246	170
0	364318	247	151
0	365738	248	133
0	367367	249	164
0	368756	250	139
0	370369	251	156
0	371641	252	117
0	373376	253	158
0	375017	254	184
0	376461	255	141
0	378168	256	160
0	379735	257	150
0	381327	258	161
0	382519	259	109
0	383989	260	124
0	385287	261	127
0	386354	262	110
0	387671	263	108
0	389185	264	151
0	390721	265	153
0	391954	266	106
0	393345	267	130
0	394643	268	125
0	396537	269	187
0	398188	270	167
0	399740	271	151
0	401062	272	131
0	402657	273	166
0	403845	274	127
0	405160	275	124
0	406798	276	185
0	408261	277	152
0	409408	278	110
0	410875	279	142
0	412384	280	149
0	414139	281	156
0	415783	282	161
0	417116	283	152
0	418449	284	128
0	420001	285	131
0	421389	286	127
0	422940	287	138
0	424748	288	179
0	426317	289	146
0	427616	290	145
0	428744	291	109
0	430198	292	139
0	431788	293	149
0	433215	294	136
0	434909	295	155
0	436312	296	126
0	437737	297	132
0	438881	298	101
0	440091	299	119
0	441385	300	120
0	442756	301	128
0	444147	302	142
0	445449	303	125
0	447163	304	183
0	448535	305	139
0	449800	306	122
0	450981	307	112
0	452367	308	115
0	453847	309	155
0	455488	310	159
0	456904	311	139
0	458449	312	154
0	459779	313	121
0	461385	314	177
0	462892	315	146
0	464457	316	160
0	465957	317	149
0	467763	318	195
0	469083	319	125
0	470199	320	108
0	471491	321	133
0	473191	322	173
0	474829	323	163
0	476251	324	135
0	477588	325	110
0	479103	326	132
0	480457	327	151
0	481890	328	124
0	483267	329	116
0	484473	330	110
0	485740	331	122
0	487199	332	136
0	488430	333	114
0	489848	334	129
0	491628	335	171
0	493050	336	129
0	494304	337	117
0	496059	338	156
0	497344	339	112
0	498807	340	133
0	500372	341	154
0	501813	342	128
0	503421	343	167
0	504842	344	136
0	506384	345	157
0	508011	346	168
0	509595	347	161
0	511048	348	144
0	512332	349	133
0	513863	350	141
0	515273	351	139
0	516486	352	126
0	517658	353	119
0	519033	354	118
0	520470	355	118
0	521895	356	150
0	523030	357	110
0	524559	358	142
0	525910	359	140
0	527406	360	156
0	528605	361	110
0	530437	362	173
0	531785	363	125
0	533404	364	154
0	534741	365	140
0	536369	366	161
0	537697	367	113
0	538993	368	121
0	540493	369	131
0	541671	370	112
0	543181	371	133
0	545013	372	193
0	546490	373	134
0	547917	374	128
0	549198	375	130
0	550351	376	92
0	552126	377	162
0	553753	378	134
0	555459	379	175
0	557084	380	155
0	558610	381	135
0	560210	382	161
0	561413	383	106
0	563138	384	172
0	564584	385	139
0	565914	386	123
0	567410	387	153
0	568986	388	153
0	570458	389	143
0	572342	390	160
0	573886	391	137
0	575380	392	129
0	576950	393	141
0	578464	394	155
0	579956	395	137
0	581517	396	170
0	582966	397	144
0	584273	398	132
0	585695	399	141
0	586938	400	129
0	588345	401	152
0	590035	402	161
0	591511	403	121
0	593048	404	140
0	594709	405	158
0	595892	406	108
0	597106	407	119
0	598383	408	126
0	599626	409	132
0	600664	410	94
0	601855	411	124
0	603224	412	146
0	604599	413	122
0	605916	414	116
0	607507	415	164
0	608782	416	128
0	609947	417	112
0	611546	418	170
0	613157	419	164
0	614544	420	127
0	615886	421	111
0	617194	422	121
0	618409	423	114
0	619731	424	127
0	621128	425	124
0	622852	426	169
0	624236	427	129
0	625766	428	143
0	627129	429	128
0	628656	430	145
0	630215	431	150
0	631682	432	124
0	633123	433	148
0	634659	434	143
0	635741	435	115
0	637262	436	150
0	638536	437	127
0	640403	438	202
0	641791	439	137
0	643120	440	109
0	644504	441	115
0	646228	442	173
0	647522	443	105
0	649080	444	161
0	650406	445	151
0	651709	446	126
0	652791	447	103
0	654515	448	189
0	655766	449	110
0	657226	450	136
0	658599	451	122
0	659761	452	119
0	661160	453	132
0	662523	454	152
0	663815	455	119
0	665165	456	119
0	666851	457	163
0	668145	458	135
0	669421	459	115
0	670567	460	96
0	671548	461	80
0	672980	462	125
0	674272	463	119
0	675910	464	157
0	677029	465	102
0	678540	466	146
0	679821	467	128
0	681333	468	137
0	683019	469	163
0	684456	470	151
0	685972	471	147
0	687537	472	166
0	689057	473	145
0	690754	474	172
0	692445	475	156
0	693840	476	128
0	695201	477	124
0	696457	478	117
0	697843	479	149
0	699335	480	138
0	700623	481	119
0	701921	482	113
0	703656	483	166
0	705144	484	145
0	706380	485	109
0	707879	486	130
0	709304	487	108
0	711043	488	164
0	712520	489	134
0	714181	490	153
0	715841	491	147
0	717134	492	116
0	718537	493	144
0	719670	494	102
0	721081	495	138
0	722722	496	156
0	724280	497	131
0	725773	498	132
0	727170	499	114
0	728383	500	117
0	729759	501	125
0	731039	502	123
0	732383	503	117
0	733879	504	135
0	735436	505	164
0	736957	506	152
0	737901	507	101
0	739675	508	155
0	741402	509	170
0	742891	510	143
0	744153	511	135
0	745323	512	111
0	746769	513	139
0	748560	514	182
0	750192	515	177
0	751728	516	129
0	753281	517	142
0	754618	518	124
0	755726	519	113
0	756968	520	120
0	758394	521	147
0	759925	522	150
0	761591	523	171
0	762902	524	136
0	764690	525	175
0	766155	526	148
0	767490	527	134
0	768893	528	140
0	770620	529	168
0	772452	530	174
0	773892	531	147
0	775252	532	129
0	776604	533	131
0	778000	534	129
0	779500	535	175
0	781220	536	149
0	782622	537	149
0	784153	538	148
0	785860	539	170
0	787143	540	109
0	788465	541	127
0	789897	542	131
0	791332	543	148
0	792970	544	181
0	794496	545	145
0	795769	546	128
0	797001	547	121
0	798411	548	117
0	799772	549	128
0	801013	550	133
0	802727	551	179
0	804090	552	130
0	805289	553	110
0	806876	554	160
0	808708	555	181
0	810384	556	175
0	811964	557	145
0	813386	558	141
0	815192	559	193
0	816832	560	144
0	818550	561	143
0	819957	562	136
0	821253	563	129
0	822867	564	161
0	824415	565	153
0	825776	566	138
0	826866	567	95
0	828493	568	138
0	829649	569	105
0	831338	570	141
0	832829	571	142
0	834618	572	190
0	836091	573	122
0	837655	574	149
0	839169	575	141
0	840469	576	117
0	842062	577	172
0	843700	578	139
0	845006	579	121
0	846549	580	149
0	848077	581	145
0	849634	582	130
0	851266	583	161
0	852848	584	167
0	854229	585	130
0	855834	586	152
0	857310	587	127
0	858569	588	116
0	859878	589	124
0	861750	590	184
0	863332	591	149
0	864486	592	95
0	866045	593	156
0	867461	594	149
0	868585	595	93
0	870012	596	142
0	871377	597	116
0	873272	598	196
0	874704	599	137
0	876293	600	161
0	877763	601	127
0	879604	602	168
0	881117	603	140
0	882624	604	134
0	884255	605	166
0	885760	606	144
0	887292	607	151
0	888513	608	106
0	889984	609	130
0	891931	610	199
0	893724	611	166
0	895119	612	126
0	896513	613	133
0	897872	614	120
0	899494	615	145
0	900926	616	139
0	902274	617	121
0	903783	618	144
0	905284	619	130
0	906666	620	128
0	907993	621	110
0	909116	622	106
0	910483	623	114
0	911961	624	147
0	913625	625	169
0	915468	626	196
0	917043	627	160
0	918251	628	133
0	919846	629	164
0	920820	630	96
0	921942	631	87
0	923114	632	109
0	924762	633	157
0	926336	634	157
0	928019	635	172
0	929245	636	115
0	930732	637	146
0	932107	638	130
0	933767	639	177
0	935323	640	154
0	937035	641	163
0	938294	642	118
0	939552	643	119
0	941071	644	148
0	942563	645	139
0	944140	646	134
0	945490	647	133
0	947067	648	162
0	948574	649	152
0	949976	650	134
0	951836	651	173
0	953355	652	162
0	954757	653	125
0	956123	654	141
0	957915	655	167
0	959592	656	156
0	960796	657	103
0	962543	658	190
0	963947	659	141
0	965199	660	120
0	966686	661	150
0	968324	662	147
0	970013	663	170
0	971554	664	146
0	972983	665	130
0	974431	666	147
0	976015	667	165
0	977789	668	179
0	979620	669	194
0	980899	670	101
0	982147	671	129
0	983532	672	114
0	985256	673	175
0	986938	674	155
0	988279	675	136
0	989526	676	118
0	991164	677	151
0	992269	678	106
0	994142	679	182
0	995561	680	129
0	997066	681	144
0	998646	682	157
0	999807	683	112
0	1000969	684	107
0	1002288	685	134
0	1003576	686	117
0	1004898	687	121
0	1006632	688	161
0	1007750	689	107
0	1009359	690	155
0	1010884	691	160
0	1012368	692	149
0	1013772	693	133
0	1015147	694	138
0	1016687	695	137
0	1018179	696	153
0	1019627	697	129
0	1021416	698	148
0	1023007	699	160
0	1024334	700	131
0	1025875	701	142
0	1027478	702	154
0	1029191	703	174
0	1030904	704	184
0	1032539	705	154
0	1033685	706	109
0	1035214	707	158
0	1036565	708	134
0	1038259	709	175
0	1039643	710	124
0	1041319	711	167
0	1042744	712	134
0	1044139	713	128
0	1045625	714	155
0	1046935	715	147
0	1048335	716	135
0	1049755	717	145
0	1051231	718	141
0	1052651	719	141
0	1053905	720	122
0	1055448	721	154
0	1056854	722	151
0	1058367	723	156
0	1060107	724	151
0	1061723	725	163
0	1063470	726	186
0	1065035	727	162
0	1066412	728	132
0	1067651	729	116
0	1068745	730	98
0	1069953	731	109
0	1071688	732	156
0	1073382	733	169
0	1074602	734	97
0	1075847	735	120
0	1077234	736	140
0	1078866	737	159
0	1080288	738	125
0	1082025	739	174
0	1083235	740	116
0	1084580	741	138
0	1086326	742	191
0	1087595	743	104
0	1088785	744	109
0	1090081	745	121
0	1091460	746	128
0	1092968	747	147
0	1094418	748	139
0	1096053	749	156
0	1097901	750	192
0	1099210	751	112
0	1100517	752	118
0	1102028	753	134
0	1103702	754	183
0	1105138	755	129
0	1106449	756	124
0	1107901	757	127
0	1109089	758	103
0	1110411	759	117
0	1111998	760	149
0	1113534	761	159
0	1115189	762	172
0	1117003	763	187
0	1118287	764	129
0	1119728	765	140
0	1121233	766	148
0	1122714	767	142
0	1124458	768	159
0	1126025	769	142
0	1127602	770	157
0	1129179	771	138
0	1130860	772	150
0	1132465	773	166
0	1133602	774	104
0	1134917	775	126
0	1136432	776	138
0	1137906	777	159
0	1139227	778	132
0	1140442	779	116
0	1141917	780	159
0	1143527	781	167
0	1144850	782	130
0	1146423	783	140
0	1148310	784	198
0	1149861	785	150
0	1151096	786	106
0	1152625	787	132
0	1154329	788	161
0	1156017	789	169
0	1157141	790	110
0	1158504	791	126
0	1160212	792	171
0	1161520	793	123
0	1163258	794	165
0	1164595	795	120
0	1166081	796	151
0	1167554	797	130
0	1169240	798	169
0	1170648	799	133
0	1172294	800	166
0	1173850	801	157
0	1175367	802	146
0	1176476	803	106
0	1177769	804	110
0	1179420	805	156
0	1180735	806	116
0	1182171	807	127
0	1183708	808	168
0	1185361	809	136
0	1186857	810	148
0	1187966	811	118
0	1189513	812	148
0	1191048	813	148
0	1192731	814	168
0	1194273	815	153
0	1195674	816	132
0	1197448	817	161
0	1199403	818	198
0	1200580	819	108
0	1201927	820	123
0	1203415	821	137
0	1205004	822	142
0	1206526	823	155
0	1207992	824	133
0	1209161	825	102
0	1210354	826	102
0	1211709	827	124
0	1212900	828	116
0	1214498	829	167
0	1216126	830	162
0	1217763	831	152
0	1219086	832	118
0	1220584	833	143
0	1222230	834	167
0	1223657	835	132
0	1225208	836	152
0	1226792	837	171
0	1228164	838	127
0	1229881	839	168
0	1231293	840	124
0	1233060	841	166
0	1234514	842	139
0	1235810	843	121
0	1237398	844	145
0	1238671	845	104
0	1240485	846	179
0	1241884	847	128
0	1243548	848	147
0	1244767	849	100
0	1246569	850	178
0	1248095	851	143
0	1249743	852	167
0	1251299	853	155
0	1252809	854	149
0	1254283	855	135
0	1255682	856	116
0	1257262	857	155
0	1258734	858	131
0	1260151	859	134
0	1261752	860	145
0	1263227	861	140
0	1264691	862	145
0	1265898	863	114
0	1267137	864	128
0	1268890	865	166
0	1270340	866	143
0	1271632	867	125
0	1273290	868	153
0	1274778	869	129
0	1276070	870	114
0	1277371	871	112
0	1278889	872	145
0	1280172	873	108
0	1281548	874	147
0	1282877	875	128
0	1284459	876	149
0	1286119	877	145
0	1287480	878	124
0	1288874	879	139
0	1290101	880	113
0	1291468	881	126
0	1293155	882	152
0	1294536	883	124
0	1296408	884	207
0	1298002	885	141
0	1299288	886	119
0	1300691	887	136
0	1302106	888	122
0	1303504	889	123
0	1304886	890	126
0	1306303	891	128
0	1308088	892	156
0	1309273	893	120
0	1310520	894	102
0	1311876	895	101
0	1312948	896	95
0	1314286	897	127
0	1315753	898	150
0	1317353	899	151
0	1318817	900	152
0	1320405	901	159
0	1321658	902	130
0	1322811	903	100
0	1324288	904	160
0	1325414	905	119
0	1327194	906	185
0	1329036	907	171
0	1330530	908	143
0	1332409	909	178
0	1334148	910	161
0	1336121	911	198
0	1337665	912	151
0	1339322	913	180
0	1340705	914	138
0	1342235	915	147
0	1343699	916	113
0	1345167	917	149
0	1346928	918	164
0	1348423	919	142
0	1349882	920	145
0	1351492	921	151
0	1353033	922	168
0	1354422	923	124
0	1355702	924	121
0	1357018	925	133
0	1358539	926	152
0	1360182	927	146
0	1361986	928	169
0	1363269	929	116
0	1364601	930	126
0	1366118	931	152
0	1367417	932	106
0	1368911	933	143
0	1370352	934	130
0	1371780	935	123
0	1373418	936	167
0	1375252	937	175
0	1376617	938	132
0	1378208	939	154
0	1379522	940	114
0	1380718	941	121
0	1382337	942	170
0	1383876	943	144
0	1385585	944	178
0	1386908	945	140
0	1388303	946	128
0	1390124	947	174
0	1391429	948	128
0	1393062	949	156
0	1394362	950	112
0	1395773	951	126
0	1397464	952	160
0	1398896	953	129
0	1400388	954	137
0	1401710	955	135
0	1403012	956	99
0	1404922	957	175
0	1406590	958	181
0	1408200	959	145
0	1409736	960	150
0	1410992	961	129
0	1412497	962	136
0	1413714	963	108
0	1415285	964	124
0	1416824	965	136
0	1418368	966	145
0	1420079	967	168
0	1421504	968	126
0	1423137	969	156
0	1424572	970	127
0	1425993	971	150
0	1427235	972	115
0	1428566	973	118
0	1429856	974	127
0	1431238	975	111
0	1432900	976	159
0	1434154	977	107
0	1435452	978	115
0	1436717	979	130
0	1438257	980	140
0	1439684	981	146
0	1441040	982	131
0	1442378	983	127
0	1443628	984	119
0	1445607	985	198
0	1447070	986	162
0	1448943	987	204
0	1450373	988	131
0	1451579	989	111
0	1452795	990	116
0	1454637	991	195
0	1456449	992	187
0	1458072	993	160
0	1459513	994	120
0	1460925	995	151
0	1462410	996	126
0	1463712	997	109
0	1465087	998	124
0	1466744	999	154
0	1468362	1000	160
0	1469779	1001	134
0	1471333	1002	159
0	1472517	1003	95
0	1473958	1004	120
0	1475486	1005	149
0	1477214	1006	159
0	1478531	1007	118
0	1480086	1008	150
0	1481415	1009	132
0	1482798	1010	121
0	1484515	1011	172
0	1486082	1012	138
0	1487685	1013	162
0	1489239	1014	149
0	1490708	1015	150
0	1492134	1016	139
0	1493556	1017	123
0	1494854	1018	129
0	1496031	1019	106
0	1497230	1020	113
0	1498954	1021	167
0	1500394	1022	137
0	1501798	1023	131
0	1503074	1024	113
0	1504972	1025	195
0	1506486	1026	155
0	1508337	1027	190
0	1509848	1028	150
0	1511092	1029	127
0	1512595	1030	159
0	1514459	1031	185
0	1515813	1032	157
0	1516965	1033	95
0	1518246	1034	126
0	1519916	1035	147
0	1521406	1036	129
0	1522823	1037	134
0	1524159	1038	131
0	1525636	1039	132
0	1526987	1040	149
0	1528599	1041	145
0	1530150	1042	142
0	1531433	1043	106
0	1532858	1044	140
0	1534433	1045	136
0	1535602	1046	110
0	1537122	1047	165
0	1538936	1048	175
0	1540026	1049	103
0	1541180	1050	114
0	1542409	1051	116
0	1544118	1052	144
0	1545820	1053	171
0	1547377	1054	150
0	1548785	1055	131
0	1550304	1056	138
0	1551785	1057	146
0	1553305	1058	131
0	1554901	1059	165
0	1556182	1060	119
0	1557269	1061	106
0	1558994	1062	180
0	1560488	1063	137
0	1561983	1064	166
0	1563701	1065	173
0	1565340	1066	170
0	1567185	1067	172
0	1568629	1068	145
0	1569990	1069	124
0	1571489	1070	143
0	1572924	1071	112
0	1574401	1072	144
0	1575722	1073	124
0	1576769	1074	102
0	1578299	1075	143
0	1579937	1076	155
0	1581401	1077	141
0	1582759	1078	127
0	1584051	1079	133
0	1585517	1080	158
0	1587127	1081	147
0	1589027	1082	189
0	1590497	1083	133
0	1592082	1084	154
0	1593927	1085	186
0	1595496	1086	142
0	1597254	1087	179
0	1598667	1088	142
0	1600233	1089	129
0	1601592	1090	137
0	1603171	1091	158
0	1604467	1092	121
0	1605748	1093	128
0	1607412	1094	167
0	1608896	1095	139
0	1610192	1096	131
0	1611500	1097	113
0	1612909	1098	138
0	1614381	1099	127
0	1615752	1100	151
0	1617150	1101	119
0	1618590	1102	119
0	1620005	1103	134
0	1621303	1104	131
0	1622779	1105	155
0	1624313	1106	147
0	1625648	1107	150
0	1627408	1108	165
0	1629087	1109	140
0	1630618	1110	141
0	1632102	1111	159
0	1633501	1112	142
0	1634921	1113	135
0	1636095	1114	99
0	1637671	1115	131
0	1639074	1116	126
0	1640468	1117	141
0	1642393	1118	186
0	1643752	1119	130
0	1645306	1120	152
0	1646442	1121	111
0	1647730	1122	113
0	1648912	1123	95
0	1650522	1124	163
0	1652124	1125	147
0	1653606	1126	121
0	1655460	1127	191
0	1657134	1128	157
0	1658648	1129	139
0	1660164	1130	136
0	1661551	1131	134
0	1663028	1132	144
0	1664521	1133	152
0	1665937	1134	145
0	1667638	1135	176
0	1669040	1136	123
0	1670491	1137	114
0	1671995	1138	145
0	1673557	1139	167
0	1674951	1140	146
0	1676568	1141	170
0	1678181	1142	162
0	1679476	1143	118
0	1681047	1144	154
0	1682333	1145	119
0	1683750	1146	136
0	1684940	1147	99
0	1686274	1148	115
0	1687746	1149	151
0	1689504	1150	168
0	1690879	1151	138
0	1691865	1152	87
0	1693052	1153	112
0	1694374	1154	117
0	1696262	1155	191
0	1697591	1156	126
0	1698895	1157	133
0	1700575	1158	153
0	1702114	1159	162
0	1703730	1160	164
0	1705105	1161	130
0	1706651	1162	147
0	1708097	1163	147
0	1709444	1164	136
0	1711090	1165	135
0	1712500	1166	137
0	1714458	1167	179
0	1715923	1168	144
0	1717234	1169	126
0	1718566	1170	114
0	1719792	1171	121
0	1721243	1172	134
0	1722486	1173	126
0	1723955	1174	160
0	1725553	1175	157
0	1727401	1176	177
0	1728740	1177	120
0	1730470	1178	175
0	1731547	1179	96
0	1733034	1180	131
0	1734499	1181	146
0	1735900	1182	128
0	1737827	1183	202
0	1738917	1184	107
0	1740683	1185	173
0	1741772	1186	94
0	1742930	1187	107
0	1744396	1188	135
0	1746177	1189	166
0	1747531	1190	126
0	1749003	1191	167
0	1750544	1192	132
0	1751808	1193	125
0	1753433	1194	152
0	1754980	1195	160
0	1756095	1196	104
0	1757611	1197	121
0	1759042	1198	152
0	1760734	1199	143
0	1762191	1200	131
0	1763601	1201	119
0	1765078	1202	132
0	1766376	1203	127
0	1768249	1204	176
0	1769953	1205	167
0	1771543	1206	171
0	1773240	1207	162
0	1774471	1208	110
0	1775687	1209	111
0	1777135	1210	146
0	1778855	1211	159
0	1780570	1212	166
0	1782189	1213	144
0	1783274	1214	92
0	1784943	1215	172
0	1786193	1216	103
0	1787608	1217	146
0	1789111	1218	138
0	1790670	1219	154
0	1791880	1220	114
0	1793117	1221	132
0	1794188	1222	98
0	1795801	1223	176
0	1797482	1224	160
0	1798693	1225	114
0	1800241	1226	141
0	1801807	1227	145
0	1803263	1228	135
0	1804961	1229	169
0	1806490	1230	145
0	1807862	1231	127
0	1808955	1232	102
0	1810322	1233	126
0	1811930	1234	161
0	1812987	1235	100
0	1814286	1236	118
0	1815764	1237	145
0	1817137	1238	130
0	1818850	1239	156
0	1820278	1240	130
0	1822060	1241	185
0	1823507	1242	138
0	1825072	1243	146
0	1826670	1244	161
0	1828184	1245	159
0	1829634	1246	147
0	1831044	1247	135
0	1833012	1248	193
0	1834402	1249	139
0	1835904	1250	138
0	1837143	1251	122
0	1838834	1252	158
0	1840359	1253	150
0	1841961	1254	161
0	1843458	1255	152
0	1844859	1256	138
0	1846694	1257	192
0	1848002	1258	143
0	1849376	1259	135
0	1850904	1260	134
0	1852369	1261	142
0	1853723	1262	131
0	1855447	1263	167
0	1857025	1264	157
0	1858405	1265	133
0	1860045	1266	171
0	1861805	1267	179
0	1863026	1268	124
0	1864475	1269	128
0	1865734	1270	113
0	1867262	1271	155
0	1868888	1272	155
0	1870200	1273	125
0	1871601	1274	124
0	1873149	1275	155
0	1874521	1276	149
0	1875895	1277	125
0	1877525	1278	161
0	1878887	1279	135
0	1880175	1280	124
0	1881849	1281	173
0	1883184	1282	126
0	1884963	1283	186
0	1886510	1284	146
0	1888175	1285	160
0	1889679	1286	149
0	1891263	1287	149
0	1892905	1288	167
0	1894503	1289	171
0	1895993	1290	134
0	1897182	1291	108
0	1898665	1292	134
0	1900146	1293	168
0	1901711	1294	172
0	1902982	1295	116
0	1904578	1296	157
0	1906365	1297	172
0	1907206	1298	66
0	1908796	1299	153
0	1909966	1300	114
0	1911515	1301	170
0	1912905	1302	141
0	1914219	1303	139
0	1915634	1304	148
0	1917201	1305	160
0	1918943	1306	175
0	1920500	1307	144
0	1922089	1308	144
0	1923521	1309	135
0	1924804	1310	115
0	1926163	1311	128
0	1927609	1312	145
0	1928879	1313	111
0	1929923	1314	103
0	1931204	1315	108
0	1932787	1316	128
0	1933899	1317	83
0	1934914	1318	102
0	1936128	1319	109
0	1937483	1320	113
0	1938867	1321	141
0	1940337	1322	147
0	1941858	1323	152
0	1943240	1324	127
0	1944145	1325	76
0	1945535	1326	133
0	1947079	1327	153
0	1948371	1328	123
0	1950239	1329	179
0	1951481	1330	100
0	1952814	1331	138
0	1954006	1332	111
0	1955256	1333	101
0	1956899	1334	156
0	1958440	1335	140
0	1959520	1336	89
0	1961006	1337	145
0	1962432	1338	133
0	1963841	1339	120
0	1965103	1340	116
0	1966519	1341	135
0	1968132	1342	148
0	1969535	1343	134
0	1970894	1344	128
0	1972304	1345	141
0	1973591	1346	120
0	1975082	1347	138
0	1976347	1348	126
0	1978016	1349	158
0	1979640	1350	158
0	1981164	1351	159
0	1982827	1352	166
0	1984612	1353	166
0	1985949	1354	144
0	1987520	1355	154
0	1988751	1356	116
0	1990334	1357	154
0	1992103	1358	174
0	1993827	1359	141
0	1995295	1360	128
0	1996795	1361	131
0	1998312	1362	158
0	1999351	1363	102
0	2000557	1364	119
0	2001892	1365	126
0	2002990	1366	111
0	2004369	1367	130
0	2005969	1368	161
0	2007252	1369	130
0	2008597	1370	119
0	2010150	1371	148
0	2011507	1372	132
0	2013257	1373	177
0	2014658	1374	126
0	2016043	1375	120
0	2017410	1376	130
0	2018889	1377	138
0	2020583	1378	163
0	2022233	1379	155
0	2023821	1380	150
0	2025500	1381	148
0	2026966	1382	155
0	2028471	1383	148
0	2030021	1384	131
0	2032017	1385	209
0	2033255	1386	117
0	2034773	1387	165
0	2036187	1388	139
0	2037656	1389	132
0	2039242	1390	140
0	2040485	1391	100
0	2041822	1392	124
0	2043427	1393	148
0	2044849	1394	143
0	2045990	1395	118
0	2047335	1396	126
0	2048596	1397	106
0	2050264	1398	173
0	2051847	1399	142
0	2053391	1400	146
0	2054773	1401	123
0	2056293	1402	147
0	2057414	1403	106
0	2059051	1404	170
0	2060350	1405	106
0	2061944	1406	167
0	2063322	1407	141
0	2064734	1408	137
0	2066163	1409	130
0	2067761	1410	144
0	2069460	1411	166
0	2071226	1412	179
0	2072438	1413	131
0	2073987	1414	152
0	2075383	1415	139
0	2076655	1416	133
0	2078137	1417	149
0	2079561	1418	127
0	2081282	1419	180
0	2082917	1420	159
0	2084355	1421	141
0	2085687	1422	117
0	2087079	1423	141
0	2088573	1424	155
0	2090181	1425	151
0	2091693	1426	169
0	2093219	1427	165
0	2094811	1428	139
0	2096291	1429	139
0	2097800	1430	131
0	2099311	1431	150
0	2100841	1432	145
0	2102240	1433	136
0	2103591	1434	142
0	2105117	1435	139
0	2106574	1436	152
0	2107644	1437	91
0	2109088	1438	157
0	2110540	1439	149
0	2112090	1440	154
0	2114006	1441	195
0	2115817	1442	188
0	2117056	1443	114
0	2119060	1444	197
0	2120638	1445	151
0	2122189	1446	152
0	2123474	1447	132
0	2125015	1448	142
0	2126491	1449	145
0	2128014	1450	133
0	2129287	1451	118
0	2130928	1452	158
0	2132269	1453	140
0	2133654	1454	128
0	2135052	1455	135
0	2136366	1456	127
0	2137656	1457	127
0	2138936	1458	133
0	2140184	1459	123
0	2141510	1460	122
0	2142808	1461	133
0	2144322	1462	145
0	2145321	1463	84
0	2147037	1464	153
0	2148354	1465	128
0	2149765	1466	146
0	2151363	1467	151
0	2152755	1468	121
0	2154144	1469	124
0	2155634	1470	150
0	2156827	1471	112
0	2158309	1472	155
0	2159871	1473	143
0	2160946	1474	110
0	2162180	1475	115
0	2163408	1476	113
0	2164851	1477	128
0	2166570	1478	182
0	2168023	1479	142
0	2169436	1480	139
0	2170896	1481	147
0	2172374	1482	131
0	2173976	1483	157
0	2175795	1484	180
0	2177362	1485	148
0	2178803	1486	128
0	2180360	1487	148
0	2181712	1488	141
0	2183386	1489	155
0	2184850	1490	144
0	2185981	1491	98
0	2187621	1492	165
0	2189319	1493	163
0	2190667	1494	115
0	2192120	1495	124
0	2193522	1496	157
0	2195218	1497	165
0	2196530	1498	135
0	2197852	1499	133
0	2199359	1500	161
0	2200715	1501	137
0	2202302	1502	156
0	2203724	1503	157
0	2205070	1504	127
0	2206676	1505	165
0	2208424	1506	169
0	2209821	1507	134
0	2211367	1508	155
0	2212723	1509	129
0	2214039	1510	112
0	2215068	1511	104
0	2216335	1512	98
0	2217781	1513	143
0	2219197	1514	125
0	2220485	1515	113
0	2222146	1516	156
0	2223763	1517	144
0	2225235	1518	141
0	2226602	1519	122
0	2228105	1520	141
0	2229556	1521	136
0	2230970	1522	135
0	2232441	1523	144
0	2234060	1524	174
0	2235275	1525	106
0	2236973	1526	167
0	2238726	1527	162
0	2240238	1528	127
0	2242126	1529	193
0	2243658	1530	160
0	2244924	1531	131
0	2246493	1532	154
0	2247673	1533	109
0	2248992	1534	124
0	2250442	1535	139
0	2251776	1536	135
0	2252926	1537	107
0	2254170	1538	121
0	2255502	1539	121
0	2256883	1540	147
0	2258257	1541	131
0	2259646	1542	144
0	2261402	1543	173
0	2262517	1544	114
0	2264171	1545	159
0	2266080	1546	200
0	2267603	1547	154
0	2269053	1548	135
0	2270590	1549	164
0	2272041	1550	145
0	2273399	1551	139
0	2274753	1552	111
0	2276287	1553	133
0	2278002	1554	160
0	2279390	1555	141
0	2281281	1556	188
0	2282425	1557	103
0	2283961	1558	149
0	2285162	1559	122
0	2286352	1560	114
0	2288004	1561	175
0	2290020	1562	225
0	2291651	1563	142
0	2293054	1564	138
0	2294079	1565	92
0	2295701	1566	153
0	2297086	1567	130
0	2298554	1568	153
0	2299951	1569	136
0	2301342	1570	129
0	2302846	1571	145
0	2304033	1572	116
0	2305746	1573	150
0	2307318	1574	161
0	2308757	1575	122
0	2310200	1576	136
0	2311833	1577	154
0	2313489	1578	163
0	2314786	1579	138
0	2316293	1580	153
0	2317525	1581	121
0	2318965	1582	145
0	2320648	1583	162
0	2322286	1584	177
0	2323520	1585	129
0	2325105	1586	160
0	2327101	1587	237
0	2328916	1588	174
0	2330310	1589	131
0	2331539	1590	111
0	2333262	1591	166
0	2334551	1592	132
0	2335785	1593	111
0	2337348	1594	158
0	2338741	1595	122
0	2340017	1596	119
0	2341207	1597	103
0	2342727	1598	157
0	2344494	1599	162
0	2346056	1600	134
0	2347564	1601	129
0	2349026	1602	143
0	2350253	1603	96
0	2351518	1604	130
0	2353553	1605	190
0	2355083	1606	163
0	2356391	1607	131
0	2358007	1608	165
0	2359527	1609	163
0	2360842	1610	109
0	2362214	1611	121
0	2363628	1612	143
0	2365075	1613	150
0	2366660	1614	178