version 3
run SimulationTime-419-20240107-16:20:10-10768
attr configname SimulationTime
attr datetime 20240107-16:20:10
attr datetimef 20240107-162010
attr experiment SimulationTime
attr inifile omnetpp.ini
attr iterationvars ""
attr iterationvarsd ""
attr iterationvarsf ""
attr measurement ""
attr network System
attr processid 10768
attr repetition 419
attr replication #419
attr resultdir results
attr runnumber 419
attr seedset 419
config **.cpu.rate 1000
config **.hd.rateProcessing 250
config **.webServer.web_server_rate 100
config **.p1 0.35
config **.p2 0.40
config network System
config num-rngs 4
config **.cpu.rng-0 0
config **.cpu.rng-1 1
config **.hd.rng-0 2
config **.webServer.rng-0 3
config repeat 500
config seed-set 419
config sim-time-limit 10000s
config **.client.numClients 40

vector 0 System.server.cpu requestCounterStat:vector ETV
attr recordingmode vector
attr source requestCounter
vector 1 System.server.hd utilizationHdStat:vector ETV
attr recordingmode vector
attr source utilizationHd
vector 2 System.server.cpu utilizationCpuStat:vector ETV
attr recordingmode vector
attr source utilizationCpu
vector 3 System.webServer utilizationWsStat:vector ETV
attr recordingmode vector
attr source utilizationWs
0	1915	1	198
0	3034	2	96
0	4288	3	113
0	5562	4	115
0	7170	5	169
0	8497	6	130
0	10180	7	172
0	11663	8	150
0	12964	9	110
0	14779	10	165
0	16231	11	125
0	17800	12	124
0	19382	13	157
0	20816	14	129
0	22134	15	131
0	23354	16	97
0	24916	17	149
0	26213	18	118
0	27469	19	117
0	28914	20	135
0	30140	21	105
0	31454	22	129
0	32747	23	128
0	34503	24	177
0	35811	25	129
0	37071	26	117
0	38432	27	120
0	40193	28	168
0	42065	29	169
0	43308	30	105
0	44368	31	81
0	45829	32	146
0	47278	33	146
0	48689	34	154
0	50274	35	164
0	51964	36	159
0	53498	37	165
0	54955	38	124
0	56411	39	143
0	57659	40	124
0	58994	41	106
0	60449	42	142
0	62305	43	197
0	63563	44	137
0	65007	45	129
0	66641	46	155
0	68225	47	135
0	69697	48	137
0	71443	49	183
0	73111	50	168
0	74659	51	143
0	76225	52	137
0	77554	53	124
0	78408	54	67
0	79823	55	106
0	81495	56	181
0	82856	57	140
0	84085	58	116
0	85236	59	108
0	86651	60	147
0	88072	61	130
0	89827	62	184
0	91085	63	103
0	92706	64	158
0	94006	65	123
0	95484	66	139
0	97015	67	158
0	98553	68	167
0	99732	69	88
0	101140	70	130
0	102534	71	143
0	103863	72	132
0	105458	73	162
0	106736	74	119
0	107999	75	106
0	109546	76	144
0	111164	77	157
0	112632	78	145
0	114178	79	145
0	115651	80	135
0	116978	81	114
0	118582	82	155
0	120004	83	145
0	121258	84	121
0	122453	85	126
0	123655	86	131
0	124971	87	117
0	126351	88	131
0	127910	89	156
0	129476	90	140
0	131134	91	149
0	132658	92	153
0	133847	93	120
0	135427	94	133
0	136872	95	126
0	138312	96	135
0	139875	97	158
0	141208	98	120
0	142775	99	148
0	144404	100	149
0	145828	101	133
0	147160	102	129
0	148690	103	141
0	150213	104	148
0	151379	105	115
0	152842	106	140
0	154501	107	156
0	155907	108	127
0	157456	109	140
0	159006	110	134
0	160343	111	124
0	161856	112	148
0	163100	113	117
0	164629	114	152
0	166042	115	132
0	167448	116	125
0	168960	117	155
0	170816	118	203
0	172534	119	171
0	174129	120	167
0	175547	121	143
0	177236	122	156
0	178343	123	106
0	179806	124	134
0	181001	125	116
0	182499	126	141
0	183767	127	101
0	184813	128	97
0	186355	129	141
0	187795	130	154
0	189294	131	140
0	190767	132	134
0	192134	133	116
0	193481	134	124
0	194844	135	144
0	196371	136	150
0	197970	137	162
0	199699	138	176
0	201280	139	172
0	202730	140	142
0	203872	141	107
0	205061	142	102
0	206609	143	161
0	208310	144	170
0	209310	145	93
0	210859	146	148
0	212153	147	129
0	213629	148	161
0	214935	149	125
0	216186	150	121
0	217631	151	126
0	219236	152	134
0	220454	153	115
0	221878	154	137
0	223685	155	206
0	225396	156	170
0	226836	157	149
0	228049	158	108
0	229292	159	94
0	230665	160	109
0	231929	161	117
0	233328	162	132
0	234778	163	135
0	236313	164	154
0	237819	165	151
0	239487	166	181
0	241149	167	159
0	243011	168	203
0	244275	169	109
0	246132	170	187
0	247718	171	147
0	248887	172	120
0	250280	173	120
0	252034	174	181
0	253689	175	156
0	255150	176	142
0	256966	177	179
0	258485	178	134
0	259885	179	151
0	261414	180	165
0	262958	181	167
0	264283	182	128
0	265739	183	141
0	267128	184	122
0	268547	185	144
0	269779	186	113
0	271481	187	153
0	272948	188	146
0	274418	189	139
0	275634	190	118
0	276929	191	106
0	278490	192	144
0	279608	193	109
0	280869	194	122
0	282520	195	164
0	284139	196	166
0	285604	197	128
0	287210	198	153
0	288571	199	134
0	290088	200	147
0	291485	201	134
0	293230	202	166
0	294588	203	119
0	296011	204	138
0	297338	205	118
0	298600	206	119
0	300008	207	135
0	301340	208	111
0	302734	209	145
0	304038	210	124
0	305618	211	155
0	307193	212	150
0	308593	213	133
0	310364	214	170
0	311885	215	152
0	313200	216	138
0	314598	217	135
0	316182	218	155
0	317413	219	108
0	318683	220	122
0	319767	221	89
0	321052	222	122
0	322361	223	120
0	323620	224	108
0	325185	225	172
0	326765	226	165
0	328216	227	136
0	329789	228	144
0	330974	229	114
0	332322	230	134
0	333827	231	146
0	335551	232	159
0	337175	233	159
0	338580	234	124
0	339984	235	129
0	341205	236	116
0	342682	237	128
0	344038	238	117
0	345469	239	138
0	347210	240	163
0	348995	241	182
0	350475	242	131
0	352133	243	149
0	353687	244	149
0	354975	245	135
0	356301	246	121
0	357885	247	145
0	359315	248	131
0	360779	249	137
0	362328	250	133
0	363606	251	117
0	365308	252	159
0	366758	253	149
0	368274	254	151
0	369884	255	153
0	371334	256	149
0	373293	257	194
0	374637	258	135
0	376025	259	125
0	377721	260	174
0	379163	261	139
0	380845	262	185
0	382476	263	152
0	383791	264	140
0	385226	265	146
0	386477	266	132
0	388251	267	161
0	389909	268	171
0	391278	269	130
0	392838	270	128
0	394137	271	102
0	395766	272	160
0	397080	273	131
0	398476	274	129
0	399863	275	142
0	401783	276	193
0	403290	277	146
0	404801	278	144
0	406545	279	159
0	408130	280	159
0	409418	281	103
0	411305	282	196
0	412649	283	121
0	413890	284	114
0	415339	285	116
0	416827	286	131
0	418413	287	149
0	419707	288	131
0	421120	289	142
0	422578	290	142
0	424140	291	165
0	425694	292	165
0	427348	293	175
0	429039	294	162
0	430431	295	133
0	431637	296	105
0	433081	297	135
0	434478	298	140
0	436091	299	152
0	437440	300	123
0	438706	301	133
0	440128	302	137
0	441347	303	110
0	443112	304	186
0	444439	305	124
0	445964	306	142
0	447598	307	157
0	449186	308	163
0	450569	309	136
0	451822	310	121
0	453116	311	123
0	454324	312	127
0	455743	313	150
0	457397	314	171
0	458600	315	108
0	459699	316	104
0	461077	317	133
0	462766	318	146
0	463987	319	120
0	465379	320	144
0	467058	321	154
0	468758	322	165
0	470369	323	152
0	471712	324	138
0	473302	325	165
0	474871	326	156
0	476293	327	147
0	477582	328	116
0	479039	329	148
0	480088	330	97
0	481501	331	130
0	483073	332	149
0	484707	333	163
0	486042	334	122
0	487274	335	99
0	488679	336	142
0	490163	337	151
0	492195	338	211
0	493561	339	135
0	494931	340	142
0	496610	341	166
0	497703	342	94
0	499424	343	170
0	500774	344	135
0	502197	345	138
0	503438	346	112
0	504761	347	136
0	505980	348	132
0	507497	349	144
0	509061	350	160
0	510649	351	131
0	512285	352	163
0	513989	353	181
0	515657	354	157
0	516982	355	128
0	518185	356	118
0	519865	357	163
0	521332	358	138
0	522796	359	163
0	524164	360	136
0	525724	361	157
0	527065	362	132
0	528762	363	168
0	529897	364	102
0	531610	365	182
0	533332	366	191
0	534804	367	141
0	536315	368	132
0	537500	369	96
0	538931	370	141
0	540611	371	149
0	542145	372	155
0	543504	373	128
0	544846	374	145
0	546438	375	145
0	548048	376	175
0	549589	377	144
0	551158	378	150
0	552698	379	139
0	554075	380	131
0	555751	381	177
0	556767	382	93
0	558261	383	135
0	559587	384	125
0	560822	385	116
0	562383	386	158
0	563725	387	135
0	565140	388	136
0	566479	389	138
0	568059	390	140
0	569714	391	154
0	571067	392	122
0	572806	393	168
0	574207	394	134
0	575787	395	153
0	577665	396	177
0	579077	397	133
0	580365	398	125
0	581805	399	141
0	583485	400	164
0	585017	401	161
0	586589	402	171
0	588381	403	171
0	589768	404	134
0	591271	405	146
0	592446	406	96
0	593453	407	86
0	594796	408	136
0	595977	409	120
0	597281	410	108
0	598874	411	150
0	600533	412	174
0	601946	413	144
0	603354	414	147
0	605134	415	167
0	606434	416	127
0	607610	417	119
0	609085	418	154
0	610456	419	120
0	611566	420	106
0	613027	421	136
0	614500	422	150
0	615896	423	131
0	617164	424	113
0	618775	425	154
0	620607	426	205
0	622356	427	164
0	623578	428	123
0	625247	429	176
0	626688	430	143
0	628016	431	127
0	629650	432	169
0	631237	433	158
0	632616	434	156
0	633911	435	118
0	635247	436	139
0	636521	437	109
0	638043	438	149
0	639522	439	138
0	641196	440	174
0	642747	441	146
0	644284	442	144
0	645586	443	131
0	647202	444	169
0	648681	445	142
0	649831	446	99
0	651358	447	154
0	652868	448	133
0	654213	449	130
0	655723	450	144
0	657055	451	135
0	658484	452	144
0	659703	453	100
0	661066	454	140
0	662603	455	172
0	664259	456	151
0	665450	457	104
0	666777	458	96
0	668282	459	138
0	669649	460	153
0	671160	461	130
0	672444	462	117
0	673752	463	113
0	675187	464	132
0	676628	465	150
0	678030	466	131
0	679458	467	143
0	680895	468	132
0	682295	469	129
0	683726	470	133
0	685180	471	115
0	686840	472	165
0	688272	473	139
0	689535	474	118
0	690944	475	124
0	692455	476	158
0	693981	477	149
0	695512	478	138
0	696771	479	120
0	698122	480	139
0	699746	481	171
0	701137	482	138
0	702591	483	155
0	704126	484	152
0	705671	485	160
0	707356	486	176
0	709071	487	160
0	710571	488	151
0	711971	489	135
0	713448	490	141
0	715106	491	167
0	716652	492	149
0	718374	493	179
0	719938	494	147
0	721285	495	128
0	723020	496	166
0	724374	497	123
0	725558	498	103
0	726655	499	94
0	727989	500	106
0	729483	501	149
0	731246	502	166
0	732711	503	118
0	734107	504	117
0	735784	505	148
0	737029	506	136
0	738381	507	137
0	739448	508	108
0	740547	509	98
0	742012	510	121
0	743666	511	167
0	745367	512	172
0	746778	513	118
0	748224	514	135
0	749850	515	185
0	751448	516	149
0	753270	517	203
0	754788	518	139
0	756167	519	140
0	757411	520	130
0	758695	521	125
0	760226	522	154
0	761488	523	103
0	763132	524	153
0	764776	525	169
0	765981	526	108
0	767337	527	125
0	768910	528	156
0	770518	529	169
0	772038	530	128
0	773554	531	147
0	775191	532	158
0	776980	533	186
0	778565	534	146
0	780157	535	145
0	781555	536	139
0	783120	537	144
0	784598	538	139
0	785923	539	114
0	787255	540	122
0	788842	541	146
0	790281	542	142
0	791684	543	136
0	792984	544	143
0	794509	545	152
0	796074	546	144
0	797213	547	100
0	798615	548	113
0	800140	549	146
0	801777	550	149
0	803319	551	147
0	804550	552	128
0	806122	553	159
0	807604	554	141
0	808950	555	135
0	810641	556	168
0	812528	557	190
0	813976	558	135
0	815297	559	110
0	816810	560	143
0	818551	561	182
0	820497	562	197
0	822015	563	127
0	823368	564	132
0	824897	565	150
0	826389	566	155
0	827713	567	133
0	828966	568	124
0	830177	569	122
0	831844	570	143
0	833335	571	148
0	834865	572	143
0	836247	573	129
0	837650	574	156
0	839120	575	125
0	840772	576	157
0	842460	577	167
0	843910	578	141
0	845644	579	171
0	847305	580	167
0	848607	581	117
0	850199	582	161
0	851410	583	122
0	852813	584	146
0	854070	585	130
0	855509	586	130
0	856898	587	138
0	858394	588	145
0	860013	589	174
0	861582	590	151
0	863453	591	194
0	864732	592	108
0	865980	593	109
0	867408	594	135
0	868586	595	119
0	870083	596	144
0	871690	597	162
0	873224	598	157
0	874924	599	173
0	876209	600	125
0	877790	601	152
0	879281	602	132
0	880600	603	136
0	881925	604	116
0	883246	605	124
0	884725	606	134
0	886352	607	142
0	887765	608	130
0	889394	609	164
0	890774	610	118
0	892348	611	127
0	893736	612	135
0	895615	613	196
0	896907	614	131
0	898122	615	116
0	899867	616	176
0	901455	617	153
0	902907	618	149
0	904376	619	142
0	905555	620	101
0	906946	621	132
0	908461	622	130
0	909971	623	159
0	911139	624	129
0	912442	625	114
0	914007	626	148
0	915173	627	99
0	916990	628	156
0	918842	629	181
0	920163	630	119
0	921601	631	143
0	922941	632	127
0	924595	633	159
0	926349	634	157
0	927928	635	158
0	929517	636	152
0	930845	637	127
0	932449	638	171
0	933884	639	138
0	935387	640	147
0	936897	641	159
0	938099	642	117
0	939482	643	144
0	940979	644	146
0	942821	645	187
0	944326	646	134
0	946015	647	180
0	947492	648	162
0	949002	649	159
0	950296	650	110
0	951680	651	141
0	953098	652	125
0	954680	653	149
0	956167	654	138
0	957356	655	132
0	958622	656	143
0	959926	657	125
0	961364	658	125
0	962981	659	146
0	964559	660	136
0	966259	661	169
0	967535	662	131
0	968702	663	98
0	970053	664	146
0	971674	665	156
0	973016	666	125
0	974757	667	172
0	976430	668	170
0	977887	669	136
0	979114	670	119
0	980837	671	152
0	982118	672	120
0	983493	673	130
0	985253	674	187
0	986756	675	136
0	988286	676	133
0	989631	677	106
0	991267	678	175
0	992837	679	167
0	994451	680	140
0	995778	681	134
0	997620	682	179
0	998789	683	112
0	1000419	684	143
0	1001583	685	117
0	1002983	686	143
0	1004166	687	112
0	1005980	688	169
0	1007460	689	137
0	1009145	690	181
0	1010212	691	94
0	1011512	692	143
0	1012877	693	126
0	1014379	694	145
0	1015662	695	120
0	1017193	696	146
0	1018539	697	127
0	1020193	698	173
0	1021881	699	159
0	1023463	700	156
0	1025446	701	176
0	1026835	702	136
0	1028644	703	186
0	1029942	704	99
0	1031210	705	127
0	1032460	706	133
0	1033926	707	137
0	1035349	708	128
0	1036841	709	155
0	1038629	710	184
0	1040216	711	154
0	1041685	712	116
0	1042950	713	120
0	1044385	714	146
0	1045707	715	123
0	1046916	716	116
0	1048327	717	130
0	1049523	718	101
0	1051003	719	147
0	1052275	720	128
0	1053659	721	125
0	1054995	722	113
0	1056256	723	112
0	1057791	724	140
0	1059016	725	110
0	1060832	726	179
0	1062334	727	149
0	1064019	728	186
0	1065491	729	153
0	1067018	730	157
0	1069016	731	195
0	1070405	732	146
0	1071887	733	129
0	1073241	734	121
0	1074988	735	168
0	1076595	736	160
0	1078186	737	154
0	1079631	738	134
0	1081014	739	130
0	1082553	740	149
0	1084323	741	167
0	1085889	742	157
0	1087620	743	176
0	1089243	744	154
0	1090922	745	166
0	1092415	746	148
0	1093854	747	144
0	1095176	748	129
0	1096552	749	125
0	1097874	750	138
0	1099131	751	116
0	1100612	752	132
0	1101770	753	101
0	1103060	754	133
0	1104732	755	161
0	1106278	756	147
0	1108055	757	172
0	1109885	758	187
0	1111322	759	150
0	1112779	760	139
0	1114014	761	120
0	1115683	762	150
0	1116978	763	132
0	1118280	764	123
0	1120016	765	177
0	1121435	766	146
0	1122705	767	127
0	1124203	768	151
0	1125461	769	119
0	1127074	770	177
0	1128673	771	162
0	1130272	772	166
0	1131602	773	113
0	1132930	774	129
0	1134594	775	159
0	1135822	776	123
0	1137575	777	174
0	1138846	778	120
0	1140315	779	132
0	1141959	780	152
0	1143421	781	135
0	1144864	782	152
0	1146257	783	128
0	1147577	784	141
0	1149116	785	152
0	1150747	786	158
0	1152397	787	147
0	1154213	788	165
0	1155728	789	152
0	1157088	790	122
0	1158471	791	122
0	1159960	792	148
0	1161370	793	127
0	1163096	794	171
0	1164585	795	132
0	1165980	796	144
0	1167388	797	127
0	1169082	798	167
0	1170459	799	136
0	1171907	800	140
0	1173434	801	150
0	1174756	802	119
0	1176079	803	118
0	1177619	804	161
0	1178903	805	125
0	1180464	806	144
0	1181736	807	105
0	1183090	808	129
0	1184618	809	147
0	1186180	810	162
0	1187317	811	98
0	1188731	812	127
0	1190249	813	151
0	1191778	814	126
0	1193174	815	141
0	1194564	816	131
0	1196120	817	129
0	1197461	818	146
0	1199101	819	167
0	1200593	820	148
0	1202043	821	135
0	1203399	822	125
0	1204730	823	134
0	1205963	824	124
0	1207402	825	126
0	1209001	826	162
0	1210418	827	144
0	1211912	828	147
0	1213626	829	175
0	1215033	830	133
0	1216245	831	113
0	1217772	832	132
0	1219198	833	133
0	1220613	834	132
0	1221955	835	109
0	1223443	836	145
0	1224727	837	121
0	1225884	838	106
0	1226996	839	97
0	1228465	840	141
0	1229819	841	137
0	1231222	842	120
0	1232875	843	176
0	1234429	844	147
0	1236104	845	178
0	1237768	846	165
0	1239290	847	159
0	1240562	848	113
0	1241673	849	100
0	1243220	850	151
0	1244514	851	111
0	1245957	852	136
0	1247380	853	126
0	1248423	854	72
0	1249978	855	170
0	1251599	856	156
0	1253097	857	131
0	1254392	858	120
0	1255869	859	154
0	1257218	860	127
0	1258796	861	161
0	1260012	862	111
0	1261484	863	145
0	1262994	864	139
0	1264427	865	130
0	1266003	866	137
0	1267116	867	90
0	1268629	868	158
0	1270099	869	131
0	1271351	870	116
0	1273099	871	169
0	1274643	872	143
0	1275980	873	108
0	1277227	874	114
0	1278519	875	109
0	1279951	876	145
0	1281526	877	142
0	1282947	878	136
0	1284587	879	161
0	1286252	880	165
0	1287674	881	153
0	1289068	882	127
0	1290603	883	142
0	1292460	884	188
0	1294087	885	166
0	1295656	886	148
0	1297062	887	119
0	1298574	888	153
0	1300098	889	155
0	1301690	890	174
0	1303652	891	183
0	1305186	892	139
0	1306650	893	133
0	1307786	894	113
0	1309321	895	142
0	1310671	896	131
0	1311928	897	122
0	1313160	898	123
0	1314383	899	120
0	1315689	900	120
0	1317411	901	171
0	1318615	902	113
0	1320477	903	187
0	1321616	904	110
0	1322909	905	114
0	1324189	906	119
0	1325890	907	178
0	1327662	908	179
0	1329300	909	159
0	1330679	910	129
0	1332112	911	144
0	1333555	912	142
0	1334843	913	121
0	1336304	914	136
0	1337644	915	125
0	1339161	916	136
0	1340649	917	145
0	1342349	918	149
0	1343956	919	154
0	1345516	920	142
0	1347178	921	157
0	1348518	922	133
0	1350187	923	154
0	1351665	924	141
0	1352951	925	119
0	1354369	926	123
0	1355931	927	143
0	1357241	928	131
0	1358492	929	104
0	1359930	930	160
0	1361000	931	81
0	1362712	932	155
0	1364031	933	142
0	1365379	934	133
0	1366799	935	123
0	1368123	936	147
0	1369474	937	134
0	1370826	938	149
0	1372502	939	173
0	1373662	940	106
0	1375049	941	116
0	1376409	942	137
0	1377502	943	108
0	1378910	944	141
0	1380162	945	129
0	1381719	946	154
0	1383142	947	120
0	1384835	948	176
0	1386554	949	170
0	1388010	950	136
0	1389654	951	185
0	1391009	952	138
0	1392460	953	144
0	1393695	954	116
0	1394838	955	110
0	1396134	956	117
0	1397528	957	149
0	1398848	958	131
0	1400340	959	153
0	1401533	960	123
0	1403209	961	163
0	1404746	962	126
0	1406014	963	121
0	1407580	964	147
0	1409049	965	152
0	1410381	966	109
0	1411897	967	143
0	1413234	968	122
0	1414405	969	100
0	1415763	970	132
0	1417297	971	139
0	1418943	972	155
0	1420208	973	122
0	1421377	974	92
0	1422927	975	147
0	1424172	976	124
0	1425561	977	134
0	1427145	978	151
0	1428329	979	117
0	1429733	980	146
0	1431128	981	134
0	1432524	982	131
0	1433809	983	102
0	1435641	984	169
0	1436936	985	134
0	1438374	986	127
0	1440107	987	150
0	1441743	988	153
0	1443208	989	132
0	1445125	990	205
0	1446830	991	160
0	1448147	992	122
0	1449897	993	183
0	1451273	994	151
0	1452631	995	123
0	1453891	996	121
0	1455245	997	131
0	1456674	998	126
0	1457905	999	112
0	1459778	1000	181
0	1461383	1001	140
0	1462935	1002	167
0	1464840	1003	204
0	1466127	1004	122
0	1467741	1005	145
0	1468996	1006	112
0	1470521	1007	148
0	1472094	1008	156
0	1473838	1009	161
0	1475049	1010	109
0	1476518	1011	154
0	1478128	1012	163
0	1479536	1013	127
0	1480655	1014	102
0	1481931	1015	113
0	1483683	1016	173
0	1485190	1017	154
0	1486459	1018	104
0	1487906	1019	136
0	1489526	1020	170
0	1490996	1021	143
0	1492247	1022	134
0	1493664	1023	120
0	1495313	1024	160
0	1496845	1025	133
0	1498594	1026	164
0	1500356	1027	175
0	1501481	1028	92
0	1503269	1029	185
0	1504943	1030	166
0	1506730	1031	176
0	1508032	1032	125
0	1509692	1033	161
0	1511010	1034	119
0	1512506	1035	141
0	1513900	1036	139
0	1515532	1037	173
0	1516792	1038	117
0	1518235	1039	140
0	1519332	1040	97
0	1520705	1041	122
0	1522238	1042	166
0	1523844	1043	161
0	1525512	1044	167
0	1527283	1045	178
0	1528830	1046	160
0	1530220	1047	145
0	1532011	1048	178
0	1533516	1049	148
0	1535226	1050	162
0	1536619	1051	124
0	1538438	1052	164
0	1539785	1053	132
0	1541189	1054	125
0	1542762	1055	156
0	1544465	1056	168
0	1545842	1057	134
0	1547270	1058	133
0	1548421	1059	114
0	1549911	1060	146
0	1551387	1061	145
0	1553081	1062	175
0	1554736	1063	160
0	1556357	1064	160
0	1557723	1065	119
0	1559193	1066	157
0	1560508	1067	142
0	1561975	1068	142
0	1563603	1069	163
0	1565006	1070	139
0	1566345	1071	128
0	1567874	1072	146
0	1569392	1073	135
0	1570814	1074	143
0	1572380	1075	139
0	1574057	1076	180
0	1575438	1077	138
0	1576992	1078	141
0	1578175	1079	106
0	1579551	1080	136
0	1581202	1081	160
0	1582779	1082	162
0	1584428	1083	160
0	1586149	1084	160
0	1588104	1085	186
0	1589477	1086	140
0	1590831	1087	129
0	1592214	1088	134
0	1593455	1089	112
0	1594914	1090	155
0	1596465	1091	156
0	1598011	1092	161
0	1599493	1093	151
0	1600801	1094	129
0	1602379	1095	147
0	1604076	1096	184
0	1605457	1097	140
0	1607002	1098	138
0	1608684	1099	161
0	1610239	1100	127
0	1611471	1101	107
0	1613164	1102	160
0	1614828	1103	171
0	1616555	1104	166
0	1618254	1105	186
0	1619941	1106	152
0	1621461	1107	141
0	1622982	1108	144
0	1624083	1109	96
0	1625661	1110	154
0	1627009	1111	133
0	1628229	1112	109
0	1629828	1113	176
0	1631239	1114	136
0	1632480	1115	108
0	1634302	1116	167
0	1635753	1117	138
0	1637296	1118	136
0	1638369	1119	98
0	1639680	1120	121
0	1640964	1121	129
0	1642146	1122	129
0	1643958	1123	175
0	1645110	1124	97
0	1646775	1125	168
0	1648313	1126	155
0	1650237	1127	197
0	1651911	1128	147
0	1653249	1129	99
0	1654636	1130	121
0	1655950	1131	119
0	1657499	1132	136
0	1658771	1133	125
0	1659933	1134	109
0	1661167	1135	111
0	1662208	1136	102
0	1663690	1137	135
0	1665360	1138	161
0	1666885	1139	156
0	1668235	1140	132
0	1669896	1141	154
0	1671393	1142	162
0	1672959	1143	151
0	1674205	1144	113
0	1675809	1145	171
0	1677384	1146	134
0	1678830	1147	143
0	1680257	1148	138
0	1682036	1149	156
0	1683858	1150	174
0	1685448	1151	157
0	1687113	1152	170
0	1688924	1153	174
0	1690243	1154	120
0	1691633	1155	115
0	1693098	1156	128
0	1694189	1157	102
0	1695649	1158	127
0	1697112	1159	124
0	1698845	1160	183
0	1700399	1161	155
0	1701791	1162	137
0	1703266	1163	158
0	1704703	1164	148
0	1705803	1165	105
0	1707305	1166	151
0	1708346	1167	104
0	1709708	1168	141
0	1711005	1169	118
0	1712811	1170	158
0	1714031	1171	113
0	1715641	1172	149
0	1716879	1173	109
0	1718261	1174	129
0	1719578	1175	120
0	1720909	1176	116
0	1722343	1177	135
0	1723907	1178	141
0	1725530	1179	158
0	1726919	1180	147
0	1728350	1181	146
0	1729790	1182	157
0	1731378	1183	165
0	1732821	1184	122
0	1734337	1185	149
0	1736174	1186	184
0	1737501	1187	130
0	1739074	1188	168
0	1740661	1189	132
0	1742069	1190	126
0	1743802	1191	188
0	1745161	1192	132
0	1746515	1193	121
0	1747770	1194	108
0	1749129	1195	140
0	1750422	1196	96
0	1751894	1197	137
0	1753241	1198	124
0	1754897	1199	179
0	1756442	1200	151
0	1757718	1201	125
0	1758956	1202	109
0	1760404	1203	139
0	1761871	1204	138
0	1763114	1205	124
0	1764313	1206	114
0	1765774	1207	130
0	1767368	1208	155
0	1768763	1209	146
0	1770423	1210	164
0	1771818	1211	134
0	1773518	1212	157
0	1775003	1213	152
0	1776587	1214	141
0	1778133	1215	147
0	1779543	1216	139
0	1780884	1217	122
0	1781892	1218	87
0	1783133	1219	118
0	1784829	1220	164
0	1786391	1221	153
0	1787737	1222	123
0	1788832	1223	100
0	1790595	1224	164
0	1791741	1225	105
0	1793260	1226	152
0	1794607	1227	108
0	1795952	1228	120
0	1797233	1229	122
0	1798222	1230	87
0	1799553	1231	116
0	1801140	1232	152
0	1802699	1233	158
0	1804049	1234	123
0	1805493	1235	141
0	1806996	1236	140
0	1808816	1237	179
0	1810157	1238	128
0	1811349	1239	111
0	1812486	1240	101
0	1813675	1241	94
0	1815063	1242	127
0	1816303	1243	101
0	1817781	1244	151
0	1819088	1245	130
0	1820297	1246	96
0	1821954	1247	156
0	1822881	1248	82
0	1823942	1249	104
0	1825726	1250	182
0	1827082	1251	135
0	1828149	1252	100
0	1829720	1253	168
0	1831030	1254	119
0	1832305	1255	106
0	1833883	1256	173
0	1835291	1257	137
0	1836507	1258	111
0	1837797	1259	125
0	1839325	1260	130
0	1840820	1261	142
0	1842510	1262	171
0	1844150	1263	141
0	1845786	1264	149
0	1847502	1265	157
0	1848982	1266	135
0	1850460	1267	131
0	1851787	1268	120
0	1853203	1269	125
0	1854697	1270	134
0	1856637	1271	193
0	1858263	1272	155
0	1859617	1273	137
0	1861037	1274	147
0	1862398	1275	122
0	1863541	1276	92
0	1864833	1277	113
0	1866426	1278	160
0	1867726	1279	129
0	1869433	1280	165
0	1870673	1281	109
0	1871971	1282	115
0	1873571	1283	161
0	1875018	1284	138
0	1876556	1285	153
0	1878012	1286	131
0	1879570	1287	151
0	1880932	1288	139
0	1882211	1289	122
0	1883663	1290	162
0	1884989	1291	129
0	1886694	1292	180
0	1887991	1293	124
0	1889383	1294	137
0	1890737	1295	131
0	1891927	1296	131
0	1893117	1297	123
0	1894791	1298	161
0	1896045	1299	117
0	1897736	1300	159
0	1899216	1301	149
0	1900703	1302	136
0	1902216	1303	148
0	1903817	1304	156
0	1904947	1305	115
0	1906490	1306	148
0	1908042	1307	149
0	1909493	1308	148
0	1911073	1309	135
0	1913039	1310	192
0	1914643	1311	137
0	1916363	1312	185
0	1917595	1313	107
0	1919182	1314	140
0	1920230	1315	93
0	1921645	1316	122
0	1923192	1317	168
0	1924477	1318	130
0	1925838	1319	126
0	1927223	1320	143
0	1928607	1321	105
0	1930438	1322	186
0	1932163	1323	158
0	1933353	1324	127
0	1934834	1325	142
0	1936440	1326	147
0	1937710	1327	115
0	1939310	1328	167
0	1940887	1329	156
0	1942181	1330	116
0	1943807	1331	169
0	1945294	1332	158
0	1946392	1333	101
0	1947952	1334	189
0	1949284	1335	123
0	1950518	1336	115
0	1952138	1337	163
0	1954045	1338	182
0	1955694	1339	174
0	1957302	1340	144
0	1958633	1341	126
0	1960305	1342	163
0	1961711	1343	133
0	1963089	1344	131
0	1964740	1345	154
0	1966182	1346	127
0	1967725	1347	144
0	1969060	1348	108
0	1970500	1349	131
0	1972094	1350	152
0	1973786	1351	161
0	1975365	1352	158
0	1976963	1353	135
0	1978223	1354	129
0	1979947	1355	149
0	1981326	1356	118
0	1982892	1357	155
0	1984399	1358	136
0	1986009	1359	175
0	1987425	1360	122
0	1988929	1361	113
0	1990220	1362	126
0	1991697	1363	132
0	1993397	1364	161
0	1994619	1365	115
0	1996066	1366	128
0	1997531	1367	126
0	1999177	1368	169
0	2000824	1369	152
0	2002040	1370	116
0	2003736	1371	157
0	2005393	1372	168
0	2006859	1373	163
0	2008409	1374	139
0	2009538	1375	120
0	2010768	1376	131
0	2012043	1377	110
0	2013150	1378	98
0	2014355	1379	120
0	2015937	1380	150
0	2017658	1381	176
0	2019234	1382	145
0	2021321	1383	214
0	2022715	1384	127
0	2024098	1385	128
0	2025367	1386	118
0	2026504	1387	92
0	2027887	1388	130
0	2028908	1389	70
0	2030066	1390	88
0	2031065	1391	100
0	2032471	1392	137
0	2033931	1393	157
0	2035324	1394	120
0	2036760	1395	141
0	2038563	1396	178
0	2040014	1397	146
0	2041825	1398	194
0	2043373	1399	145
0	2044733	1400	130
0	2046350	1401	170
0	2047892	1402	135
0	2049394	1403	165
0	2050664	1404	113
0	2051950	1405	129
0	2053517	1406	164
0	2054763	1407	115
0	2056501	1408	151
0	2057934	1409	116
0	2059306	1410	140
0	2061054	1411	163
0	2062793	1412	160
0	2064359	1413	147
0	2065785	1414	143
0	2067102	1415	108
0	2068624	1416	137
0	2069890	1417	137
0	2071416	1418	135
0	2072932	1419	149
0	2074316	1420	120
0	2075863	1421	150
0	2077191	1422	135
0	2078533	1423	141
0	2079947	1424	127
0	2081228	1425	138
0	2082744	1426	127
0	2084348	1427	145
0	2085465	1428	100
0	2086829	1429	133
0	2088249	1430	124
0	2089732	1431	142
0	2091302	1432	173
0	2092940	1433	145
0	2094485	1434	156
0	2095872	1435	126
0	2097262	1436	127
0	2098888	1437	139
0	2100592	1438	171
0	2101685	1439	102
0	2103458	1440	171
0	2104989	1441	164
0	2106366	1442	138
0	2107615	1443	130
0	2108934	1444	112
0	2110639	1445	168
0	2112292	1446	168
0	2114056	1447	185
0	2115442	1448	135
0	2116876	1449	155
0	2118348	1450	132
0	2119891	1451	152
0	2121339	1452	129
0	2122804	1453	138
0	2124165	1454	132
0	2125501	1455	133
0	2126864	1456	134
0	2128247	1457	146
0	2129383	1458	97
0	2130599	1459	105
0	2132472	1460	171
0	2133958	1461	147
0	2135558	1462	143
0	2137154	1463	163
0	2138783	1464	172
0	2140388	1465	176
0	2141707	1466	124
0	2143387	1467	163
0	2145178	1468	182
0	2146806	1469	153
0	2148186	1470	120
0	2149562	1471	129
0	2151229	1472	176
0	2152633	1473	139
0	2154310	1474	174
0	2155484	1475	101
0	2156791	1476	138
0	2158109	1477	127
0	2159511	1478	131
0	2161409	1479	195
0	2162929	1480	146
0	2164210	1481	110
0	2165639	1482	132
0	2167395	1483	165
0	2168598	1484	106
0	2170261	1485	174
0	2171760	1486	162
0	2173332	1487	137
0	2174773	1488	132
0	2176345	1489	143
0	2177611	1490	124
0	2178943	1491	129
0	2180272	1492	128
0	2181613	1493	124
0	2182990	1494	128
0	2184936	1495	221
0	2186753	1496	174
0	2188210	1497	140
0	2189745	1498	136
0	2191442	1499	174
0	2192964	1500	138
0	2194173	1501	116
0	2195633	1502	151
0	2197176	1503	148
0	2198700	1504	125
0	2199911	1505	100
0	2201118	1506	108
0	2202522	1507	147
0	2203815	1508	124
0	2205024	1509	118
0	2206403	1510	141
0	2207744	1511	102
0	2208998	1512	109
0	2210508	1513	139
0	2212159	1514	182
0	2213485	1515	127
0	2214841	1516	127
0	2216502	1517	162
0	2217741	1518	102
0	2219181	1519	137
0	2220617	1520	136
0	2222087	1521	121
0	2223590	1522	144
0	2224894	1523	119
0	2226575	1524	168
0	2228130	1525	136
0	2229676	1526	163
0	2231138	1527	167
0	2232406	1528	113
0	2233895	1529	140
0	2235209	1530	112
0	2236782	1531	164
0	2238360	1532	145
0	2240166	1533	183
0	2241681	1534	136
0	2243137	1535	147
0	2244920	1536	158
0	2246301	1537	132
0	2247596	1538	114
0	2249138	1539	157
0	2250574	1540	152
0	2252122	1541	151
0	2253676	1542	155
0	2254886	1543	119
0	2256445	1544	156
0	2257663	1545	121
0	2259370	1546	158
0	2260611	1547	104
0	2262235	1548	161
0	2263590	1549	126
0	2265137	1550	157
0	2266536	1551	126
0	2268241	1552	180
0	2269954	1553	166
0	2271045	1554	96
0	2272373	1555	137
0	2274031	1556	147
0	2275582	1557	118
0	2277090	1558	141
0	2278517	1559	148
0	2279940	1560	153
0	2281299	1561	124
0	2282930	1562	142
0	2284216	1563	127
0	2285321	1564	90
0	2286540	1565	108
0	2287853	1566	134
0	2289176	1567	128
0	2290570	1568	123
0	2291920	1569	131
0	2293216	1570	140
0	2294325	1571	104
0	2295548	1572	114
0	2297067	1573	150
0	2298470	1574	126
0	2300030	1575	165
0	2301087	1576	86
0	2302306	1577	112
0	2303518	1578	121
0	2305179	1579	158
0	2306805	1580	152
0	2308543	1581	179
0	2309842	1582	134
0	2311066	1583	105
0	2312490	1584	137
0	2313703	1585	120
0	2315331	1586	161
0	2316948	1587	162
0	2318543	1588	160
0	2319973	1589	149
0	2321621	1590	146
0	2323338	1591	180
0	2325047	1592	160
0	2326839	1593	175
0	2328031	1594	95
0	2329596	1595	140
0	2331122	1596	159
0	2332514	1597	141
0	2334038	1598	149
0	2335243	1599	124
0	2336757	1600	146
0	2338305	1601	147
0	2339760	1602	138
0	2341482	1603	183
0	2342986	1604	143
0	2344805	1605	180
0	2346063	1606	101
0	2347506	1607	130
0	2349040	1608	169
0	2350519	1609	136
0	2352074	1610	149
0	2353227	1611	116
0	2355132	1612	200
0	2356895	1613	158
0	2358282	1614	124