version 3
run SimulationTime-113-20240107-16:16:20-22100
attr configname SimulationTime
attr datetime 20240107-16:16:20
attr datetimef 20240107-161620
attr experiment SimulationTime
attr inifile omnetpp.ini
attr iterationvars ""
attr iterationvarsd ""
attr iterationvarsf ""
attr measurement ""
attr network System
attr processid 22100
attr repetition 113
attr replication #113
attr resultdir results
attr runnumber 113
attr seedset 113
config **.cpu.rate 1000
config **.hd.rateProcessing 250
config **.webServer.web_server_rate 100
config **.p1 0.35
config **.p2 0.40
config network System
config num-rngs 4
config **.cpu.rng-0 0
config **.cpu.rng-1 1
config **.hd.rng-0 2
config **.webServer.rng-0 3
config repeat 500
config seed-set 113
config sim-time-limit 10000s
config **.client.numClients 40

vector 0 System.server.cpu requestCounterStat:vector ETV
attr recordingmode vector
attr source requestCounter
vector 1 System.server.hd utilizationHdStat:vector ETV
attr recordingmode vector
attr source utilizationHd
vector 2 System.server.cpu utilizationCpuStat:vector ETV
attr recordingmode vector
attr source utilizationCpu
vector 3 System.webServer utilizationWsStat:vector ETV
attr recordingmode vector
attr source utilizationWs
0	1983	1	210
0	3634	2	150
0	5175	3	136
0	6761	4	163
0	8263	5	155
0	9746	6	136
0	10945	7	104
0	12542	8	160
0	14039	9	160
0	15271	10	114
0	16979	11	163
0	18112	12	120
0	19465	13	138
0	21026	14	146
0	22253	15	110
0	23487	16	95
0	24903	17	141
0	26216	18	126
0	27691	19	150
0	29289	20	148
0	30648	21	122
0	32244	22	139
0	33413	23	116
0	34962	24	156
0	36595	25	168
0	38213	26	149
0	39742	27	150
0	41080	28	129
0	42360	29	109
0	43703	30	117
0	45287	31	153
0	46873	32	157
0	48145	33	119
0	49671	34	151
0	51295	35	155
0	52841	36	137
0	54367	37	125
0	55873	38	149
0	57120	39	114
0	58298	40	104
0	59780	41	117
0	61543	42	178
0	62802	43	108
0	64093	44	120
0	65325	45	125
0	66878	46	146
0	68444	47	173
0	69801	48	136
0	71475	49	151
0	72631	50	108
0	74046	51	138
0	75791	52	166
0	76978	53	98
0	78714	54	161
0	80169	55	152
0	81630	56	140
0	83209	57	144
0	84482	58	120
0	85963	59	134
0	87354	60	133
0	88816	61	135
0	89723	62	68
0	91162	63	148
0	92633	64	132
0	94117	65	147
0	95662	66	160
0	97040	67	131
0	98236	68	133
0	99916	69	149
0	101395	70	145
0	102422	71	82
0	104093	72	174
0	105472	73	140
0	107274	74	165
0	108849	75	168
0	110367	76	149
0	111549	77	99
0	113206	78	160
0	114551	79	134
0	116392	80	177
0	117791	81	130
0	119288	82	148
0	120906	83	153
0	122190	84	121
0	124052	85	169
0	125283	86	108
0	126700	87	138
0	128079	88	134
0	129790	89	162
0	131107	90	119
0	132244	91	108
0	133809	92	152
0	135268	93	130
0	136872	94	133
0	138693	95	176
0	140351	96	169
0	141598	97	120
0	143093	98	158
0	144788	99	176
0	146076	100	124
0	147302	101	117
0	149075	102	174
0	150328	103	108
0	151587	104	116
0	152734	105	122
0	154431	106	168
0	156082	107	146
0	157522	108	141
0	159419	109	196
0	160880	110	135
0	162079	111	110
0	163643	112	157
0	165278	113	156
0	166849	114	140
0	167920	115	106
0	169553	116	168
0	171051	117	147
0	172532	118	144
0	174061	119	150
0	175317	120	118
0	176769	121	141
0	178167	122	123
0	179747	123	165
0	181177	124	131
0	182678	125	144
0	184049	126	134
0	185687	127	149
0	187358	128	158
0	188995	129	160
0	190483	130	146
0	191973	131	151
0	193198	132	122
0	194687	133	150
0	195903	134	115
0	197376	135	118
0	198671	136	122
0	200287	137	169
0	201693	138	121
0	203066	139	134
0	204595	140	135
0	205871	141	133
0	207137	142	123
0	208463	143	107
0	209815	144	125
0	210968	145	116
0	212256	146	109
0	213540	147	125
0	214736	148	113
0	216442	149	151
0	217837	150	125
0	219461	151	161
0	220863	152	147
0	222479	153	151
0	224021	154	133
0	225309	155	103
0	226803	156	181
0	228144	157	120
0	229690	158	137
0	231220	159	143
0	232429	160	129
0	233972	161	148
0	235414	162	137
0	237143	163	172
0	238656	164	156
0	240019	165	134
0	241643	166	169
0	242910	167	122
0	244326	168	129
0	245591	169	112
0	247487	170	184
0	249116	171	150
0	250889	172	186
0	252123	173	107
0	253428	174	132
0	255059	175	174
0	256227	176	129
0	257577	177	135
0	259092	178	120
0	260668	179	155
0	261646	180	82
0	262964	181	111
0	264445	182	160
0	266096	183	156
0	267501	184	132
0	268702	185	134
0	270161	186	148
0	271734	187	158
0	273031	188	128
0	274472	189	134
0	275786	190	124
0	277237	191	158
0	278548	192	128
0	280145	193	142
0	281635	194	141
0	283353	195	165
0	284923	196	147
0	286417	197	151
0	287445	198	87
0	289144	199	180
0	290604	200	152
0	292094	201	143
0	293330	202	109
0	294876	203	151
0	296265	204	140
0	297942	205	154
0	299338	206	131
0	300663	207	124
0	302080	208	122
0	303491	209	140
0	304751	210	130
0	306176	211	124
0	307991	212	172
0	309264	213	108
0	310813	214	144
0	312059	215	113
0	313648	216	156
0	315230	217	153
0	316909	218	172
0	318289	219	127
0	319718	220	127
0	321363	221	168
0	323186	222	186
0	324692	223	143
0	326136	224	125
0	327371	225	116
0	328953	226	141
0	330066	227	92
0	331212	228	103
0	332444	229	113
0	334026	230	174
0	335788	231	177
0	337387	232	158
0	339161	233	185
0	340447	234	131
0	341624	235	100
0	342909	236	126
0	344649	237	187
0	346045	238	125
0	347616	239	146
0	349199	240	141
0	351037	241	179
0	352522	242	136
0	353604	243	91
0	355337	244	188
0	356794	245	152
0	358285	246	152
0	359865	247	145
0	361314	248	142
0	362958	249	157
0	364354	250	132
0	365838	251	141
0	367422	252	141
0	368931	253	112
0	370364	254	148
0	371881	255	144
0	373409	256	137
0	374816	257	128
0	376047	258	116
0	377420	259	132
0	379091	260	153
0	380822	261	182
0	382385	262	162
0	383716	263	114
0	385084	264	121
0	386423	265	114
0	387671	266	111
0	389025	267	125
0	390499	268	147
0	391898	269	132
0	393306	270	130
0	394963	271	148
0	396457	272	127
0	397819	273	129
0	399373	274	145
0	400925	275	157
0	402336	276	142
0	403609	277	120
0	405119	278	151
0	406449	279	139
0	407891	280	130
0	409544	281	160
0	411022	282	143
0	412371	283	120
0	413799	284	137
0	415270	285	136
0	416590	286	123
0	417706	287	105
0	419208	288	149
0	420596	289	135
0	422042	290	144
0	423311	291	112
0	424897	292	145
0	426555	293	159
0	428451	294	197
0	429624	295	90
0	431164	296	141
0	432330	297	101
0	433834	298	139
0	435531	299	170
0	437068	300	155
0	438541	301	152
0	440205	302	165
0	441910	303	146
0	443423	304	140
0	445003	305	171
0	446516	306	140
0	448076	307	129
0	449410	308	117
0	450972	309	161
0	452618	310	180
0	454084	311	125
0	455396	312	137
0	456906	313	159
0	458342	314	113
0	460010	315	165
0	461346	316	137
0	462624	317	129
0	463852	318	111
0	465612	319	149
0	467224	320	152
0	468905	321	186
0	470467	322	161
0	471820	323	132
0	473265	324	152
0	474537	325	119
0	475751	326	109
0	477168	327	140
0	478285	328	104
0	479905	329	157
0	481239	330	118
0	482722	331	130
0	484496	332	187
0	485741	333	128
0	487071	334	125
0	488462	335	144
0	490035	336	160
0	491347	337	133
0	492986	338	158
0	494370	339	137
0	495976	340	170
0	497280	341	145
0	499132	342	177
0	500559	343	154
0	502081	344	135
0	503569	345	131
0	505041	346	131
0	506341	347	117
0	507830	348	124
0	509364	349	151
0	511008	350	156
0	512120	351	97
0	513538	352	127
0	514958	353	149
0	516319	354	140
0	517462	355	114
0	518725	356	116
0	520210	357	136
0	521687	358	150
0	523057	359	133
0	524692	360	155
0	526424	361	201
0	528022	362	151
0	529399	363	124
0	530976	364	140
0	532982	365	197
0	534400	366	137
0	535580	367	103
0	537175	368	152
0	538455	369	117
0	540007	370	138
0	541633	371	137
0	543257	372	157
0	544519	373	115
0	545852	374	126
0	547021	375	102
0	548600	376	146
0	550094	377	139
0	551714	378	169
0	552958	379	113
0	554252	380	118
0	555875	381	170
0	557554	382	130
0	559106	383	159
0	560341	384	112
0	561535	385	119
0	563172	386	154
0	564287	387	108
0	565702	388	138
0	566912	389	107
0	568265	390	137
0	569790	391	136
0	571487	392	174
0	573104	393	148
0	574431	394	114
0	575780	395	134
0	577434	396	177
0	578879	397	152
0	580772	398	184
0	581854	399	91
0	583391	400	139
0	584751	401	121
0	586381	402	163
0	587757	403	137
0	589217	404	141
0	590695	405	153
0	592114	406	136
0	593195	407	94
0	594803	408	159
0	596163	409	123
0	597924	410	149
0	599533	411	156
0	601109	412	151
0	602655	413	151
0	604080	414	134
0	605414	415	125
0	606532	416	113
0	607697	417	100
0	609331	418	181
0	610443	419	103
0	611728	420	123
0	613326	421	163
0	614800	422	137
0	616306	423	139
0	617759	424	138
0	619334	425	144
0	620707	426	130
0	622326	427	150
0	623765	428	144
0	625238	429	138
0	626673	430	141
0	628124	431	142
0	629479	432	140
0	630739	433	127
0	631996	434	112
0	633526	435	141
0	635088	436	169
0	636503	437	130
0	638062	438	170
0	639434	439	145
0	640895	440	151
0	642457	441	155
0	644136	442	146
0	645420	443	107
0	647078	444	157
0	648782	445	171
0	650162	446	129
0	651916	447	191
0	653239	448	138
0	654657	449	141
0	655891	450	94
0	657382	451	146
0	658528	452	111
0	659708	453	109
0	661139	454	122
0	662720	455	166
0	664386	456	155
0	665659	457	118
0	666926	458	134
0	668341	459	142
0	669999	460	166
0	671630	461	154
0	673059	462	128
0	674583	463	141
0	676055	464	137
0	677604	465	148
0	679191	466	146
0	680670	467	136
0	682135	468	162
0	683339	469	113
0	684579	470	126
0	685856	471	134
0	687393	472	164
0	688704	473	134
0	690018	474	115
0	691329	475	120
0	692932	476	158
0	694289	477	114
0	695395	478	101
0	696794	479	138
0	698274	480	138
0	699976	481	183
0	701351	482	146
0	702459	483	97
0	703933	484	157
0	705421	485	131
0	706946	486	136
0	708525	487	136
0	709745	488	121
0	711252	489	172
0	712788	490	140
0	714425	491	156
0	716100	492	166
0	717646	493	169
0	718854	494	127
0	720314	495	145
0	721827	496	152
0	723567	497	149
0	724945	498	117
0	726426	499	152
0	727902	500	128
0	729410	501	123
0	731024	502	171
0	732169	503	112
0	733683	504	135
0	735151	505	147
0	736516	506	130
0	737651	507	102
0	738965	508	121
0	740353	509	131
0	741858	510	147
0	743237	511	128
0	744490	512	112
0	746022	513	149
0	747747	514	180
0	749008	515	122
0	750397	516	130
0	751863	517	129
0	753101	518	101
0	754648	519	140
0	756410	520	144
0	757701	521	124
0	759111	522	129
0	760414	523	120
0	761810	524	137
0	763194	525	133
0	764565	526	134
0	765769	527	133
0	767128	528	134
0	768605	529	130
0	769955	530	128
0	771299	531	117
0	772787	532	139
0	774455	533	159
0	775989	534	145
0	777723	535	169
0	779150	536	126
0	780616	537	125
0	781994	538	133
0	783429	539	130
0	784929	540	140
0	786150	541	112
0	787475	542	128
0	788799	543	105
0	790387	544	153
0	791746	545	134
0	793204	546	139
0	794542	547	135
0	796076	548	151
0	797306	549	111
0	798675	550	119
0	800171	551	135
0	801726	552	146
0	803196	553	163
0	804463	554	112
0	806001	555	147
0	807114	556	120
0	808742	557	161
0	810124	558	135
0	811113	559	84
0	812606	560	139
0	814106	561	157
0	815530	562	129
0	816888	563	145
0	818237	564	122
0	819731	565	167
0	821081	566	123
0	822537	567	117
0	824080	568	154
0	825481	569	114
0	826692	570	109
0	828068	571	127
0	829707	572	150
0	831303	573	157
0	832756	574	140
0	834197	575	130
0	835252	576	100
0	836606	577	111
0	838165	578	142
0	839488	579	146
0	840952	580	162
0	842511	581	156
0	843910	582	128
0	845154	583	129
0	846926	584	179
0	848376	585	145
0	849663	586	120
0	851041	587	155
0	852667	588	151
0	853913	589	115
0	855502	590	151
0	857041	591	142
0	858603	592	147
0	859966	593	122
0	861496	594	147
0	863289	595	172
0	864863	596	173
0	866482	597	160
0	868088	598	175
0	869791	599	164
0	871456	600	189
0	872769	601	116
0	874284	602	152
0	875643	603	140
0	877221	604	145
0	878451	605	131
0	879870	606	134
0	881456	607	149
0	882826	608	127
0	884371	609	148
0	885941	610	158
0	887161	611	103
0	888613	612	147
0	890283	613	151
0	891872	614	168
0	893440	615	157
0	895227	616	192
0	896514	617	126
0	897887	618	122
0	899869	619	195
0	901158	620	135
0	902573	621	116
0	904446	622	200
0	905793	623	128
0	907432	624	162
0	908985	625	148
0	910243	626	117
0	911582	627	132
0	912940	628	111
0	914555	629	142
0	916112	630	151
0	917650	631	161
0	919279	632	158
0	920697	633	135
0	922310	634	136
0	923768	635	141
0	925059	636	104
0	926738	637	166
0	928135	638	124
0	929486	639	116
0	931345	640	173
0	933028	641	164
0	934417	642	124
0	936172	643	186
0	937559	644	144
0	938867	645	133
0	940373	646	145
0	941743	647	103
0	943180	648	134
0	944319	649	108
0	945729	650	122
0	947361	651	167
0	948952	652	166
0	950549	653	148
0	952112	654	156
0	953349	655	134
0	954727	656	131
0	955972	657	118
0	957392	658	145
0	959080	659	165
0	960890	660	182
0	962324	661	143
0	963759	662	136
0	965550	663	160
0	966953	664	134
0	968861	665	183
0	970241	666	127
0	971809	667	149
0	973114	668	118
0	974670	669	143
0	976192	670	154
0	977536	671	131
0	979101	672	148
0	980553	673	135
0	981604	674	82
0	982856	675	101
0	984316	676	135
0	985749	677	128
0	986862	678	104
0	988304	679	121
0	989567	680	131
0	991108	681	122
0	992305	682	112
0	993434	683	96
0	994942	684	145
0	996681	685	160
0	998587	686	181
0	1000076	687	150
0	1001157	688	112
0	1002463	689	121
0	1003864	690	147
0	1005291	691	134
0	1006670	692	122
0	1007785	693	106
0	1009285	694	149
0	1010898	695	136
0	1012423	696	150
0	1014194	697	176
0	1015810	698	159
0	1017357	699	152
0	1019016	700	157
0	1020579	701	158
0	1022117	702	147
0	1023349	703	121
0	1024601	704	115
0	1025879	705	119
0	1027834	706	194
0	1028815	707	90
0	1029811	708	77
0	1031187	709	149
0	1032755	710	162
0	1034016	711	132
0	1035129	712	112
0	1036812	713	152
0	1038400	714	149
0	1039547	715	110
0	1040959	716	117
0	1042035	717	81
0	1043339	718	121
0	1044884	719	138
0	1046367	720	139
0	1047893	721	155
0	1048938	722	96
0	1050344	723	135
0	1051859	724	154
0	1053419	725	161
0	1054771	726	125
0	1056102	727	118
0	1057892	728	167
0	1059314	729	151
0	1060817	730	157
0	1062221	731	119
0	1063411	732	109
0	1065030	733	154
0	1066505	734	138
0	1068061	735	171
0	1069502	736	124
0	1071067	737	144
0	1072394	738	124
0	1073760	739	137
0	1075048	740	132
0	1076532	741	135
0	1077735	742	122
0	1079314	743	156
0	1080549	744	104
0	1081786	745	92
0	1083278	746	123
0	1084720	747	127
0	1086499	748	202
0	1088003	749	149
0	1089610	750	175
0	1090971	751	122
0	1092317	752	121
0	1093676	753	134
0	1095145	754	120
0	1096599	755	135
0	1097691	756	101
0	1099089	757	139
0	1100616	758	158
0	1101983	759	130
0	1103515	760	142
0	1104752	761	116
0	1106268	762	151
0	1107741	763	152
0	1109218	764	150
0	1111089	765	182
0	1112403	766	125
0	1113909	767	135
0	1115500	768	162
0	1116823	769	142
0	1118449	770	140
0	1120032	771	160
0	1121525	772	132
0	1123062	773	138
0	1124749	774	168
0	1126762	775	222
0	1128434	776	163
0	1129916	777	143
0	1131556	778	161
0	1133125	779	148
0	1134854	780	159
0	1136439	781	154
0	1137736	782	106
0	1139010	783	115
0	1140081	784	122
0	1141822	785	176
0	1143173	786	118
0	1144663	787	137
0	1146246	788	156
0	1147702	789	125
0	1149158	790	134
0	1150966	791	191
0	1152312	792	123
0	1153850	793	155
0	1155245	794	130
0	1156604	795	118
0	1158157	796	152
0	1159517	797	133
0	1160771	798	111
0	1162234	799	162
0	1163870	800	142
0	1165249	801	144
0	1166802	802	148
0	1167990	803	103
0	1169620	804	145
0	1171181	805	160
0	1172623	806	151
0	1174115	807	149
0	1175656	808	160
0	1177419	809	172
0	1179157	810	168
0	1180615	811	141
0	1182277	812	141
0	1183619	813	131
0	1184988	814	132
0	1186253	815	118
0	1187804	816	152
0	1188823	817	94
0	1190082	818	124
0	1191723	819	154
0	1192957	820	116
0	1194270	821	114
0	1195527	822	120
0	1196784	823	120
0	1198129	824	122
0	1199703	825	149
0	1201294	826	150
0	1202720	827	131
0	1203869	828	120
0	1205315	829	147
0	1206495	830	132
0	1207964	831	148
0	1209302	832	127
0	1210363	833	92
0	1211737	834	137
0	1212966	835	112
0	1214298	836	127
0	1215722	837	135
0	1216876	838	103
0	1218024	839	101
0	1219330	840	120
0	1221119	841	176
0	1222603	842	137
0	1223826	843	106
0	1225097	844	118
0	1226463	845	127
0	1227876	846	144
0	1229341	847	140
0	1230687	848	121
0	1231917	849	101
0	1233468	850	137
0	1235158	851	197
0	1236905	852	174
0	1238353	853	131
0	1239867	854	117
0	1241381	855	149
0	1242960	856	166
0	1244401	857	144
0	1245721	858	127
0	1247068	859	132
0	1248450	860	130
0	1249787	861	142
0	1251754	862	212
0	1253368	863	175
0	1255033	864	160
0	1256504	865	132
0	1257952	866	143
0	1259471	867	146
0	1260960	868	140
0	1262022	869	99
0	1263420	870	110
0	1264749	871	120
0	1266293	872	151
0	1267817	873	155
0	1269362	874	156
0	1270783	875	128
0	1272489	876	163
0	1274142	877	160
0	1275656	878	133
0	1277200	879	145
0	1278688	880	150
0	1280078	881	155
0	1281506	882	113
0	1282923	883	122
0	1284248	884	146
0	1285564	885	131
0	1287102	886	137
0	1288579	887	152
0	1289745	888	111
0	1291194	889	150
0	1292613	890	123
0	1293956	891	124
0	1295413	892	146
0	1296683	893	115
0	1298253	894	167
0	1300179	895	201
0	1301687	896	147
0	1303241	897	151
0	1304593	898	115
0	1305826	899	102
0	1307291	900	147
0	1308914	901	160
0	1310313	902	128
0	1311655	903	127
0	1312899	904	107
0	1314422	905	142
0	1315756	906	129
0	1317073	907	136
0	1318634	908	140
0	1320334	909	185
0	1321472	910	98
0	1323108	911	147
0	1324451	912	114
0	1325776	913	134
0	1327001	914	104
0	1328717	915	173
0	1330348	916	154
0	1331884	917	159
0	1333183	918	122
0	1334525	919	113
0	1335815	920	102
0	1337380	921	128
0	1338709	922	110
0	1340411	923	181
0	1341914	924	166
0	1343486	925	135
0	1344971	926	130
0	1346172	927	116
0	1347459	928	124
0	1349308	929	184
0	1350754	930	132
0	1352355	931	172
0	1353840	932	152
0	1355117	933	128
0	1356214	934	94
0	1357670	935	139
0	1359189	936	156
0	1360532	937	116
0	1361975	938	134
0	1363412	939	144
0	1364776	940	130
0	1366425	941	154
0	1367819	942	127
0	1369411	943	177
0	1370771	944	121
0	1372605	945	171
0	1373765	946	109
0	1374979	947	103
0	1376589	948	155
0	1377805	949	109
0	1379272	950	141
0	1380402	951	95
0	1382181	952	170
0	1383804	953	166
0	1385109	954	116
0	1386684	955	154
0	1388292	956	153
0	1389854	957	155
0	1391174	958	127
0	1392502	959	111
0	1394052	960	138
0	1395415	961	134
0	1396826	962	134
0	1397948	963	99
0	1399231	964	110
0	1400609	965	135
0	1402245	966	149
0	1403584	967	130
0	1405072	968	177
0	1406497	969	142
0	1408046	970	143
0	1409749	971	166
0	1411061	972	119
0	1412272	973	110
0	1413927	974	162
0	1415441	975	149
0	1416751	976	117
0	1418395	977	141
0	1419740	978	128
0	1421329	979	152
0	1422835	980	128
0	1424352	981	152
0	1425928	982	159
0	1427515	983	168
0	1429174	984	170
0	1430756	985	141
0	1432147	986	130
0	1433701	987	159
0	1435247	988	161
0	1436724	989	146
0	1438146	990	122
0	1439586	991	149
0	1441069	992	136
0	1442184	993	104
0	1443567	994	138
0	1444842	995	128
0	1446294	996	125
0	1447731	997	138
0	1449476	998	144
0	1450590	999	107
0	1451804	1000	118
0	1453130	1001	119
0	1454107	1002	96
0	1455390	1003	126
0	1456774	1004	145
0	1458472	1005	167
0	1460043	1006	158
0	1461150	1007	102
0	1462322	1008	99
0	1463449	1009	96
0	1464991	1010	130
0	1466483	1011	149
0	1467855	1012	141
0	1469238	1013	138
0	1470623	1014	124
0	1472079	1015	131
0	1473375	1016	111
0	1474801	1017	135
0	1476480	1018	162
0	1477745	1019	120
0	1479199	1020	140
0	1481051	1021	159
0	1482409	1022	119
0	1483955	1023	145
0	1485550	1024	130
0	1487274	1025	139
0	1489010	1026	181
0	1490403	1027	120
0	1492209	1028	179
0	1493739	1029	155
0	1495273	1030	144
0	1496674	1031	114
0	1498142	1032	139
0	1499452	1033	137
0	1500666	1034	117
0	1501955	1035	110
0	1503757	1036	179
0	1505186	1037	142
0	1506666	1038	149
0	1508067	1039	134
0	1509580	1040	135
0	1510933	1041	124
0	1512512	1042	146
0	1513748	1043	153
0	1515194	1044	135
0	1516764	1045	151
0	1518127	1046	126
0	1519496	1047	136
0	1521080	1048	155
0	1522742	1049	157
0	1524452	1050	164
0	1525858	1051	137
0	1527162	1052	125
0	1528817	1053	164
0	1529954	1054	110
0	1531445	1055	146
0	1532967	1056	159
0	1534434	1057	138
0	1535908	1058	167
0	1537428	1059	145
0	1538944	1060	138
0	1540374	1061	137
0	1541718	1062	129
0	1543528	1063	183
0	1544672	1064	107
0	1545942	1065	117
0	1547551	1066	160
0	1548956	1067	136
0	1550073	1068	104
0	1551298	1069	116
0	1553255	1070	187
0	1554407	1071	117
0	1555756	1072	128
0	1557699	1073	192
0	1559006	1074	110
0	1560105	1075	108
0	1561648	1076	150
0	1562867	1077	122
0	1564020	1078	104
0	1565429	1079	120
0	1567003	1080	162
0	1568697	1081	151
0	1570143	1082	143
0	1571531	1083	113
0	1572839	1084	121
0	1574240	1085	132
0	1575717	1086	140
0	1577302	1087	150
0	1578620	1088	133
0	1579730	1089	109
0	1581198	1090	126
0	1582919	1091	150
0	1584096	1092	114
0	1585708	1093	141
0	1587246	1094	147
0	1588722	1095	127
0	1589937	1096	114
0	1591527	1097	161
0	1593118	1098	156
0	1594616	1099	137
0	1595942	1100	114
0	1597942	1101	199
0	1599922	1102	195
0	1601476	1103	139
0	1602802	1104	119
0	1604566	1105	183
0	1606117	1106	152
0	1607552	1107	140
0	1608872	1108	127
0	1610156	1109	125
0	1611389	1110	103
0	1612409	1111	89
0	1613902	1112	144
0	1615313	1113	144
0	1616755	1114	145
0	1617804	1115	96
0	1619290	1116	149
0	1620456	1117	109
0	1621831	1118	102
0	1623335	1119	153
0	1624682	1120	125
0	1625890	1121	109
0	1627542	1122	165
0	1628824	1123	113
0	1630245	1124	136
0	1631655	1125	123
0	1633257	1126	147
0	1634748	1127	160
0	1636384	1128	169
0	1637535	1129	90
0	1638930	1130	143
0	1640516	1131	161
0	1642223	1132	174
0	1643797	1133	159
0	1645359	1134	155
0	1646589	1135	119
0	1648167	1136	153
0	1649541	1137	139
0	1650637	1138	101
0	1651939	1139	125
0	1653622	1140	145
0	1655212	1141	175
0	1656691	1142	150
0	1658129	1143	137
0	1659561	1144	153
0	1661065	1145	165
0	1662583	1146	137
0	1664294	1147	174
0	1665646	1148	135
0	1667161	1149	158
0	1668521	1150	114
0	1669834	1151	126
0	1671410	1152	139
0	1672827	1153	128
0	1674306	1154	130
0	1675740	1155	131
0	1676914	1156	107
0	1678286	1157	133
0	1679780	1158	139
0	1680903	1159	92
0	1682307	1160	136
0	1683619	1161	127
0	1685560	1162	184
0	1686923	1163	118
0	1688569	1164	155
0	1690336	1165	166
0	1691697	1166	136
0	1693050	1167	138
0	1694335	1168	98
0	1695556	1169	100
0	1697375	1170	189
0	1698673	1171	139
0	1700090	1172	128
0	1701792	1173	173
0	1703101	1174	126
0	1704904	1175	178
0	1706545	1176	178
0	1708154	1177	166
0	1709306	1178	107
0	1710602	1179	115
0	1712211	1180	159
0	1713579	1181	131
0	1715006	1182	142
0	1716247	1183	114
0	1717883	1184	133
0	1719295	1185	137
0	1720757	1186	147
0	1722397	1187	151
0	1723325	1188	87
0	1724730	1189	136
0	1726465	1190	169
0	1727703	1191	139
0	1729417	1192	159
0	1730961	1193	141
0	1732178	1194	112
0	1733577	1195	140
0	1734826	1196	112
0	1736201	1197	120
0	1737917	1198	143
0	1739285	1199	129
0	1740530	1200	113
0	1742107	1201	150
0	1743657	1202	149
0	1744984	1203	134
0	1746027	1204	92
0	1747541	1205	141
0	1748909	1206	123
0	1750389	1207	155
0	1751699	1208	119
0	1752756	1209	84
0	1753888	1210	92
0	1754994	1211	97
0	1756482	1212	135
0	1758023	1213	152
0	1759329	1214	127
0	1760715	1215	119
0	1762161	1216	147
0	1763568	1217	154
0	1765236	1218	169
0	1766715	1219	142
0	1768085	1220	118
0	1769446	1221	134
0	1771112	1222	149
0	1772459	1223	114
0	1773728	1224	140
0	1775166	1225	147
0	1776679	1226	160
0	1778090	1227	122
0	1779166	1228	97
0	1780903	1229	138
0	1782530	1230	155
0	1783882	1231	125
0	1785382	1232	163
0	1786752	1233	129
0	1787893	1234	108
0	1789520	1235	162
0	1790699	1236	102
0	1792204	1237	148
0	1793679	1238	136
0	1795132	1239	126
0	1796965	1240	167
0	1798672	1241	160
0	1800397	1242	158
0	1801877	1243	137
0	1803170	1244	120
0	1804998	1245	179
0	1806131	1246	112
0	1807449	1247	125
0	1808837	1248	125
0	1810059	1249	125
0	1811281	1250	112
0	1812562	1251	134
0	1813994	1252	131
0	1815413	1253	138
0	1817229	1254	175
0	1818895	1255	145
0	1820542	1256	158
0	1821669	1257	106
0	1823065	1258	147
0	1824617	1259	155
0	1825871	1260	110
0	1827323	1261	123
0	1828782	1262	112
0	1830300	1263	151
0	1831574	1264	115
0	1833206	1265	153
0	1834416	1266	127
0	1835592	1267	109
0	1837397	1268	174
0	1838618	1269	100
0	1839981	1270	117
0	1841450	1271	142
0	1842866	1272	141
0	1844327	1273	172
0	1845774	1274	134
0	1847150	1275	119
0	1848972	1276	157
0	1850073	1277	100
0	1851758	1278	172
0	1853286	1279	141
0	1854811	1280	147
0	1856453	1281	191
0	1857949	1282	141
0	1859374	1283	124
0	1860668	1284	119
0	1862290	1285	175
0	1863454	1286	113
0	1864875	1287	136
0	1866734	1288	182
0	1867972	1289	101
0	1869378	1290	128
0	1871206	1291	203
0	1872452	1292	93
0	1873751	1293	120
0	1875109	1294	125
0	1876407	1295	123
0	1877695	1296	119
0	1879357	1297	155
0	1880993	1298	171
0	1882411	1299	135
0	1883650	1300	109
0	1884689	1301	110
0	1886269	1302	157
0	1888051	1303	179
0	1889604	1304	150
0	1891138	1305	145
0	1892643	1306	140
0	1893905	1307	99
0	1895395	1308	119
0	1896646	1309	98
0	1897918	1310	122
0	1899467	1311	158
0	1900778	1312	120
0	1902285	1313	152
0	1903915	1314	157
0	1905533	1315	161
0	1907062	1316	150
0	1908533	1317	120
0	1909637	1318	103
0	1911205	1319	167
0	1912503	1320	134
0	1913971	1321	153
0	1915683	1322	181
0	1916962	1323	114
0	1918763	1324	184
0	1920032	1325	112
0	1921555	1326	140
0	1922873	1327	143
0	1924328	1328	136
0	1925944	1329	163
0	1927600	1330	150
0	1928981	1331	124
0	1931107	1332	207
0	1932621	1333	135
0	1934007	1334	143
0	1935204	1335	128
0	1936444	1336	129
0	1937754	1337	119
0	1939234	1338	135
0	1940745	1339	138
0	1941923	1340	112
0	1943646	1341	168
0	1945273	1342	140
0	1946995	1343	171
0	1948305	1344	119
0	1949685	1345	121
0	1951118	1346	144
0	1952285	1347	112
0	1953786	1348	142
0	1954905	1349	106
0	1956256	1350	139
0	1957901	1351	154
0	1959331	1352	143
0	1960616	1353	116
0	1961918	1354	127
0	1963361	1355	118
0	1965224	1356	182
0	1966587	1357	122
0	1968279	1358	159
0	1969757	1359	125
0	1971340	1360	159
0	1973139	1361	158
0	1974409	1362	137
0	1975787	1363	111
0	1977103	1364	109
0	1978355	1365	123
0	1979778	1366	148
0	1980998	1367	105
0	1982297	1368	134
0	1983829	1369	139
0	1985348	1370	135
0	1986906	1371	151
0	1988518	1372	159
0	1989876	1373	121
0	1991356	1374	133
0	1992753	1375	132
0	1993826	1376	94
0	1995177	1377	132
0	1996596	1378	134
0	1998080	1379	137
0	1999493	1380	143
0	2000927	1381	145
0	2002431	1382	131
0	2003957	1383	143
0	2005364	1384	142
0	2007027	1385	164
0	2008552	1386	134
0	2009922	1387	135
0	2011497	1388	150
0	2013113	1389	153
0	2014676	1390	137
0	2016323	1391	150
0	2017824	1392	140
0	2019366	1393	145
0	2020982	1394	143
0	2022778	1395	161
0	2024356	1396	155
0	2026346	1397	191
0	2027775	1398	140
0	2029124	1399	134
0	2030581	1400	133
0	2032224	1401	156
0	2034019	1402	184
0	2035217	1403	111
0	2036627	1404	141
0	2038580	1405	218
0	2039975	1406	122
0	2041398	1407	146
0	2042766	1408	121
0	2044022	1409	117
0	2045577	1410	161
0	2047122	1411	132
0	2048565	1412	134
0	2050053	1413	137
0	2051599	1414	163
0	2053344	1415	160
0	2054825	1416	144
0	2056470	1417	172
0	2058050	1418	173
0	2059101	1419	82
0	2060538	1420	139
0	2062227	1421	148
0	2063712	1422	130
0	2065268	1423	131
0	2066980	1424	153
0	2068467	1425	130
0	2069773	1426	111
0	2071409	1427	157
0	2073072	1428	156
0	2074358	1429	131
0	2076099	1430	161
0	2077729	1431	159
0	2079167	1432	131
0	2080745	1433	143
0	2082370	1434	162
0	2083905	1435	132
0	2085318	1436	144
0	2086756	1437	143
0	2088409	1438	146
0	2089750	1439	130
0	2091273	1440	149
0	2092726	1441	132
0	2094186	1442	133
0	2095191	1443	94
0	2096644	1444	126
0	2098246	1445	153
0	2099650	1446	147
0	2100973	1447	126
0	2102520	1448	156
0	2104247	1449	192
0	2105927	1450	160
0	2107572	1451	148
0	2109292	1452	177
0	2110948	1453	161
0	2112432	1454	145
0	2113631	1455	110
0	2115112	1456	120
0	2116509	1457	128
0	2118064	1458	150
0	2119547	1459	128
0	2120973	1460	136
0	2122462	1461	140
0	2123904	1462	123
0	2125217	1463	128
0	2126623	1464	137
0	2128479	1465	195
0	2129938	1466	138
0	2131480	1467	161
0	2132924	1468	141
0	2134234	1469	109
0	2135598	1470	138
0	2137122	1471	143
0	2138458	1472	113
0	2139751	1473	128
0	2141124	1474	134
0	2142802	1475	189
0	2144075	1476	112
0	2145891	1477	185
0	2147334	1478	142
0	2149049	1479	170
0	2150688	1480	159
0	2152425	1481	182
0	2153901	1482	139
0	2155596	1483	164
0	2157015	1484	130
0	2158322	1485	122
0	2160018	1486	147
0	2161513	1487	132
0	2162822	1488	112
0	2164200	1489	147
0	2166002	1490	182
0	2167304	1491	115
0	2168567	1492	118
0	2170019	1493	147
0	2171394	1494	138
0	2172778	1495	135
0	2174301	1496	134
0	2175496	1497	112
0	2176633	1498	98
0	2178100	1499	144
0	2179677	1500	163
0	2181272	1501	146
0	2182946	1502	149
0	2184200	1503	119
0	2185406	1504	119
0	2186814	1505	125
0	2188305	1506	142
0	2189614	1507	120
0	2191207	1508	148
0	2192583	1509	129
0	2194088	1510	151
0	2195352	1511	129
0	2196596	1512	113
0	2198163	1513	160
0	2199654	1514	144
0	2200917	1515	132
0	2202474	1516	144
0	2204420	1517	183
0	2205995	1518	156
0	2207530	1519	142
0	2208950	1520	128
0	2210454	1521	137
0	2211633	1522	90
0	2213354	1523	164
0	2215158	1524	187
0	2216697	1525	140
0	2218162	1526	138
0	2219719	1527	154
0	2221264	1528	144
0	2222774	1529	159
0	2224119	1530	133
0	2225313	1531	101
0	2226851	1532	139
0	2228480	1533	172
0	2230203	1534	176
0	2231495	1535	127
0	2233082	1536	138
0	2234459	1537	132
0	2235897	1538	133
0	2237172	1539	108
0	2238479	1540	125
0	2240110	1541	150
0	2241549	1542	144
0	2243204	1543	160
0	2244391	1544	108
0	2245722	1545	124
0	2247125	1546	146
0	2248666	1547	156
0	2250302	1548	163
0	2251566	1549	111
0	2252931	1550	125
0	2254841	1551	185
0	2256187	1552	117
0	2257418	1553	120
0	2258876	1554	151
0	2260304	1555	125
0	2261699	1556	138
0	2263410	1557	158
0	2265065	1558	142
0	2266594	1559	140
0	2267928	1560	122
0	2269424	1561	125
0	2270765	1562	118
0	2272072	1563	118
0	2273460	1564	135
0	2274881	1565	144
0	2276674	1566	164
0	2278091	1567	136
0	2279418	1568	112
0	2281063	1569	158
0	2282629	1570	146
0	2284116	1571	130
0	2285700	1572	157
0	2286925	1573	112
0	2288332	1574	144
0	2289839	1575	148
0	2291306	1576	136
0	2292832	1577	141
0	2294294	1578	119
0	2295719	1579	112
0	2297099	1580	116
0	2298567	1581	127
0	2300089	1582	163
0	2301372	1583	124
0	2302741	1584	120
0	2303900	1585	106
0	2305309	1586	140
0	2307132	1587	158
0	2308677	1588	132
0	2310219	1589	127
0	2311699	1590	136
0	2312987	1591	113
0	2314218	1592	118
0	2315872	1593	165
0	2317664	1594	163
0	2319253	1595	152
0	2320531	1596	127
0	2321854	1597	126
0	2323243	1598	140
0	2324936	1599	160
0	2326193	1600	123
0	2327454	1601	132
0	2328719	1602	114
0	2330392	1603	182
0	2332155	1604	182
0	2333340	1605	96
0	2334922	1606	163
0	2336168	1607	95
0	2337818	1608	147
0	2339232	1609	131
0	2340519	1610	119
0	2341768	1611	130
0	2343106	1612	135
0	2344560	1613	131
0	2346402	1614	191
0	2347892	1615	125