version 3
run SimulationTime-160-20240107-16:16:55-3420
attr configname SimulationTime
attr datetime 20240107-16:16:55
attr datetimef 20240107-161655
attr experiment SimulationTime
attr inifile omnetpp.ini
attr iterationvars ""
attr iterationvarsd ""
attr iterationvarsf ""
attr measurement ""
attr network System
attr processid 3420
attr repetition 160
attr replication #160
attr resultdir results
attr runnumber 160
attr seedset 160
config **.cpu.rate 1000
config **.hd.rateProcessing 250
config **.webServer.web_server_rate 100
config **.p1 0.35
config **.p2 0.40
config network System
config num-rngs 4
config **.cpu.rng-0 0
config **.cpu.rng-1 1
config **.hd.rng-0 2
config **.webServer.rng-0 3
config repeat 500
config seed-set 160
config sim-time-limit 10000s
config **.client.numClients 40

vector 0 System.server.cpu requestCounterStat:vector ETV
attr recordingmode vector
attr source requestCounter
vector 1 System.server.hd utilizationHdStat:vector ETV
attr recordingmode vector
attr source utilizationHd
vector 2 System.server.cpu utilizationCpuStat:vector ETV
attr recordingmode vector
attr source utilizationCpu
vector 3 System.webServer utilizationWsStat:vector ETV
attr recordingmode vector
attr source utilizationWs
0	1956	1	189
0	3492	2	153
0	5284	3	173
0	6660	4	133
0	8068	5	149
0	9526	6	139
0	11150	7	157
0	12848	8	151
0	14350	9	157
0	15796	10	118
0	17345	11	126
0	18821	12	145
0	20092	13	118
0	21301	14	120
0	22825	15	149
0	24154	16	132
0	25828	17	171
0	27469	18	162
0	28973	19	135
0	30339	20	150
0	32001	21	149
0	33685	22	175
0	34783	23	97
0	36484	24	138
0	38086	25	161
0	39701	26	132
0	41213	27	125
0	42680	28	130
0	44123	29	142
0	45493	30	124
0	46792	31	146
0	48332	32	159
0	49961	33	180
0	51223	34	123
0	52292	35	94
0	53626	36	129
0	55111	37	138
0	56601	38	161
0	58095	39	139
0	59806	40	177
0	61278	41	133
0	62607	42	144
0	64138	43	152
0	65340	44	109
0	66409	45	98
0	68046	46	158
0	69681	47	150
0	71071	48	123
0	72556	49	140
0	74021	50	131
0	75547	51	131
0	76846	52	130
0	78141	53	122
0	79701	54	155
0	81167	55	149
0	82676	56	128
0	84143	57	128
0	85704	58	154
0	87301	59	156
0	89000	60	167
0	90790	61	181
0	92196	62	117
0	93253	63	88
0	94464	64	104
0	96295	65	182
0	97667	66	129
0	99360	67	156
0	100778	68	139
0	102471	69	158
0	104075	70	162
0	105329	71	111
0	106718	72	144
0	108285	73	162
0	110040	74	166
0	111243	75	100
0	112814	76	142
0	113963	77	112
0	115280	78	122
0	116944	79	171
0	118356	80	122
0	119630	81	119
0	121041	82	148
0	122310	83	134
0	123859	84	148
0	125444	85	148
0	127083	86	170
0	128333	87	117
0	129384	88	104
0	131062	89	163
0	132316	90	118
0	133586	91	131
0	134747	92	114
0	136343	93	151
0	137559	94	115
0	138923	95	143
0	140504	96	136
0	142219	97	162
0	143672	98	148
0	145056	99	113
0	146765	100	155
0	148358	101	140
0	149887	102	148
0	151336	103	152
0	152701	104	136
0	154158	105	136
0	155701	106	148
0	157371	107	165
0	159310	108	182
0	160841	109	134
0	162290	110	163
0	163702	111	127
0	165303	112	152
0	167306	113	200
0	168695	114	112
0	170213	115	163
0	171898	116	176
0	173565	117	152
0	175166	118	156
0	176602	119	141
0	177809	120	119
0	178887	121	95
0	180334	122	122
0	181932	123	161
0	183190	124	105
0	184363	125	92
0	185824	126	130
0	187313	127	150
0	188943	128	153
0	190544	129	158
0	192046	130	140
0	193749	131	156
0	195243	132	141
0	196747	133	151
0	198577	134	183
0	199912	135	118
0	201185	136	132
0	202275	137	93
0	203975	138	155
0	205794	139	182
0	207245	140	113
0	208791	141	153
0	210023	142	111
0	211348	143	136
0	212612	144	105
0	214481	145	200
0	215957	146	133
0	217354	147	138
0	219008	148	155
0	220710	149	161
0	222282	150	164
0	223888	151	163
0	225318	152	129
0	226509	153	98
0	227990	154	134
0	229411	155	154
0	230840	156	140
0	232049	157	114
0	233554	158	148
0	234909	159	130
0	236383	160	138
0	237589	161	115
0	239093	162	145
0	240661	163	133
0	241962	164	130
0	243262	165	127
0	244684	166	151
0	245890	167	111
0	247164	168	115
0	248588	169	131
0	249970	170	120
0	251517	171	150
0	253088	172	154
0	254518	173	147
0	255937	174	128
0	257319	175	125
0	258821	176	159
0	260241	177	133
0	261643	178	123
0	262968	179	118
0	264464	180	162
0	265813	181	124
0	267009	182	117
0	268433	183	145
0	269618	184	116
0	270917	185	142
0	272110	186	98
0	273774	187	153
0	274851	188	100
0	276475	189	161
0	277737	190	122
0	278956	191	120
0	280792	192	181
0	282479	193	164
0	283928	194	154
0	285059	195	110
0	286683	196	147
0	288308	197	164
0	290062	198	193
0	291305	199	110
0	292777	200	158
0	294110	201	118
0	295356	202	121
0	296908	203	151
0	298409	204	132
0	299704	205	134
0	300859	206	108
0	302386	207	152
0	303832	208	141
0	305191	209	120
0	306756	210	147
0	308006	211	115
0	309343	212	140
0	310921	213	143
0	312489	214	137
0	313849	215	133
0	315266	216	124
0	316763	217	164
0	318345	218	161
0	319759	219	117
0	320865	220	82
0	322415	221	155
0	324110	222	160
0	325475	223	130
0	326440	224	84
0	327709	225	128
0	329457	226	173
0	331080	227	162
0	332371	228	130
0	333591	229	109
0	335188	230	159
0	336589	231	140
0	337981	232	143
0	339385	233	151
0	340974	234	136
0	342500	235	143
0	343498	236	99
0	345028	237	151
0	346708	238	175
0	347996	239	125
0	349568	240	142
0	350644	241	85
0	352005	242	126
0	353172	243	114
0	354589	244	132
0	356126	245	140
0	357162	246	91
0	358587	247	128
0	360093	248	143
0	361437	249	125
0	362871	250	126
0	364646	251	158
0	366274	252	145
0	367690	253	141
0	368927	254	116
0	370250	255	138
0	371791	256	148
0	373069	257	123
0	374573	258	141
0	375875	259	127
0	377268	260	125
0	378631	261	130
0	380311	262	179
0	381923	263	145
0	383322	264	130
0	384723	265	136
0	386449	266	183
0	387879	267	127
0	389452	268	144
0	390914	269	143
0	392537	270	165
0	393849	271	129
0	394882	272	88
0	396191	273	132
0	397856	274	156
0	399917	275	212
0	401717	276	189
0	403021	277	133
0	404565	278	145
0	406062	279	140
0	407528	280	136
0	408924	281	127
0	410555	282	158
0	412116	283	156
0	413765	284	178
0	414922	285	118
0	416442	286	139
0	418041	287	164
0	419601	288	169
0	420972	289	130
0	422615	290	145
0	424050	291	156
0	425432	292	137
0	426849	293	142
0	428444	294	152
0	430024	295	155
0	431543	296	160
0	432975	297	141
0	434347	298	121
0	435405	299	97
0	437044	300	157
0	438720	301	163
0	440307	302	144
0	441908	303	164
0	443698	304	171
0	445215	305	142
0	446533	306	127
0	448140	307	190
0	449442	308	121
0	450970	309	147
0	452239	310	133
0	453620	311	132
0	455241	312	154
0	456727	313	139
0	457843	314	95
0	459308	315	136
0	460939	316	154
0	462335	317	147
0	463592	318	118
0	464752	319	95
0	466556	320	176
0	467987	321	134
0	469397	322	125
0	470888	323	130
0	472351	324	148
0	473953	325	143
0	475504	326	156
0	477286	327	185
0	478604	328	117
0	480114	329	147
0	481613	330	143
0	482998	331	124
0	484134	332	109
0	485503	333	144
0	486590	334	100
0	488039	335	126
0	489512	336	126
0	491403	337	192
0	492659	338	105
0	493991	339	123
0	495630	340	155
0	497019	341	136
0	498780	342	170
0	500396	343	157
0	501878	344	141
0	503220	345	129
0	504775	346	148
0	506152	347	128
0	507950	348	171
0	509340	349	123
0	510593	350	115
0	512189	351	141
0	513584	352	130
0	515175	353	150
0	516582	354	158
0	517930	355	129
0	519096	356	117
0	520616	357	167
0	522160	358	149
0	523532	359	121
0	524831	360	131
0	526232	361	146
0	527592	362	125
0	528962	363	119
0	530460	364	153
0	531837	365	140
0	533357	366	151
0	534671	367	135
0	536075	368	137
0	537691	369	143
0	539468	370	185
0	540754	371	117
0	542102	372	135
0	543640	373	155
0	545100	374	143
0	546785	375	152
0	548286	376	146
0	549591	377	110
0	551043	378	155
0	552219	379	109
0	553568	380	97
0	554873	381	130
0	556310	382	124
0	557651	383	136
0	559095	384	153
0	560735	385	149
0	562324	386	156
0	563783	387	142
0	565026	388	102
0	566555	389	150
0	568066	390	139
0	569374	391	133
0	571048	392	163
0	572792	393	185
0	574318	394	153
0	575736	395	117
0	577022	396	131
0	578517	397	138
0	579688	398	114
0	581126	399	159
0	582554	400	148
0	584284	401	157
0	585692	402	135
0	587191	403	154
0	588565	404	141
0	589654	405	96
0	591400	406	187
0	592956	407	143
0	594307	408	128
0	595775	409	143
0	597167	410	140
0	598402	411	102
0	599989	412	162
0	601557	413	147
0	602710	414	122
0	604398	415	161
0	605894	416	129
0	607335	417	146
0	609047	418	151
0	610392	419	136
0	612020	420	154
0	613651	421	160
0	615150	422	152
0	616451	423	134
0	617656	424	122
0	619135	425	160
0	620565	426	131
0	622452	427	194
0	623967	428	142
0	625022	429	102
0	626808	430	174
0	628277	431	148
0	629582	432	134
0	630690	433	105
0	632528	434	177
0	634163	435	146
0	635803	436	145
0	637306	437	164
0	638792	438	153
0	640049	439	118
0	641763	440	184
0	643320	441	152
0	644585	442	124
0	646033	443	145
0	647499	444	143
0	648703	445	97
0	650136	446	124
0	651581	447	146
0	652949	448	151
0	654378	449	140
0	655941	450	153
0	657193	451	129
0	658621	452	127
0	659963	453	125
0	661578	454	182
0	662981	455	144
0	664382	456	130
0	665776	457	129
0	667158	458	131
0	668530	459	139
0	670036	460	138
0	671571	461	172
0	673149	462	165
0	674578	463	144
0	675961	464	120
0	677933	465	207
0	679347	466	147
0	681057	467	167
0	682706	468	164
0	684295	469	142
0	685724	470	145
0	687324	471	167
0	688733	472	142
0	690294	473	150
0	691994	474	153
0	693412	475	151
0	694747	476	124
0	696242	477	142
0	697415	478	92
0	698746	479	118
0	700549	480	185
0	701979	481	147
0	703383	482	137
0	704666	483	118
0	705978	484	117
0	707203	485	126
0	708829	486	161
0	710258	487	136
0	711345	488	110
0	712652	489	120
0	714019	490	115
0	715789	491	179
0	717343	492	145
0	718783	493	133
0	720277	494	165
0	721776	495	148
0	723253	496	146
0	724255	497	91
0	725761	498	143
0	727181	499	133
0	728690	500	151
0	729919	501	124
0	731323	502	137
0	732907	503	153
0	734366	504	148
0	735601	505	112
0	736907	506	111
0	738332	507	132
0	739625	508	116
0	740974	509	132
0	742607	510	159
0	744105	511	145
0	745762	512	174
0	747039	513	120
0	748441	514	131
0	749898	515	152
0	751011	516	108
0	752279	517	121
0	753783	518	157
0	755503	519	183
0	756528	520	99
0	758052	521	149
0	759579	522	148
0	761050	523	150
0	762649	524	172
0	763997	525	121
0	765475	526	135
0	766946	527	146
0	768123	528	106
0	769623	529	149
0	770962	530	139
0	772373	531	132
0	773748	532	144
0	775364	533	177
0	776801	534	138
0	778358	535	134
0	779628	536	117
0	781007	537	136
0	782428	538	134
0	784061	539	154
0	785498	540	155
0	786813	541	132
0	788099	542	129
0	789651	543	153
0	790878	544	104
0	792164	545	123
0	793414	546	99
0	794671	547	108
0	796027	548	129
0	797247	549	123
0	798769	550	140
0	800033	551	105
0	801648	552	146
0	803163	553	134
0	804441	554	117
0	806188	555	172
0	807435	556	126
0	809056	557	164
0	810442	558	127
0	812034	559	149
0	813670	560	156
0	815100	561	135
0	816607	562	146
0	818215	563	153
0	819874	564	162
0	821233	565	110
0	822810	566	164
0	824419	567	164
0	826011	568	141
0	827244	569	132
0	828798	570	156
0	830481	571	148
0	831883	572	135
0	833236	573	128
0	834536	574	121
0	835748	575	97
0	837153	576	118
0	838628	577	144
0	839819	578	110
0	840993	579	117
0	842797	580	178
0	844752	581	202
0	846206	582	131
0	847834	583	163
0	849232	584	133
0	850539	585	114
0	852050	586	138
0	853515	587	162
0	855290	588	188
0	856838	589	145
0	858407	590	143
0	860055	591	169
0	861256	592	140
0	863002	593	165
0	864868	594	187
0	866343	595	140
0	868071	596	145
0	869783	597	181
0	871123	598	125
0	873024	599	194
0	874226	600	112
0	875769	601	158
0	877426	602	148
0	878755	603	120
0	879896	604	100
0	880923	605	82
0	882032	606	112
0	883480	607	149
0	884701	608	108
0	886299	609	143
0	887867	610	128
0	889203	611	109
0	890500	612	120
0	891908	613	129
0	893428	614	141
0	895020	615	135
0	896628	616	159
0	898088	617	133
0	899700	618	165
0	901267	619	152
0	902814	620	163
0	904398	621	137
0	905561	622	102
0	906947	623	117
0	908262	624	112
0	909723	625	132
0	911417	626	155
0	912993	627	163
0	914295	628	115
0	915520	629	114
0	917295	630	177
0	918303	631	99
0	919562	632	110
0	921069	633	144
0	922397	634	117
0	923999	635	163
0	925509	636	147
0	927040	637	144
0	928565	638	158
0	930041	639	145
0	931535	640	154
0	933132	641	164
0	934535	642	146
0	935938	643	146
0	937349	644	140
0	938734	645	156
0	940000	646	117
0	941345	647	130
0	942515	648	107
0	943963	649	155
0	945439	650	148
0	947272	651	184
0	948835	652	162
0	950190	653	136
0	952006	654	179
0	953593	655	158
0	954862	656	116
0	956130	657	141
0	957401	658	122
0	958630	659	112
0	960216	660	154
0	961452	661	119
0	962746	662	125
0	964270	663	145
0	965982	664	169
0	967454	665	131
0	969122	666	183
0	970665	667	150
0	971824	668	98
0	973187	669	122
0	974520	670	127
0	975981	671	132
0	977470	672	132
0	978869	673	132
0	980167	674	137
0	981535	675	131
0	982696	676	122
0	984243	677	154
0	985449	678	115
0	986777	679	113
0	988195	680	120
0	989765	681	163
0	991290	682	162
0	992975	683	138
0	994225	684	121
0	995689	685	145
0	996960	686	110
0	998477	687	132
0	999639	688	115
0	1001412	689	178
0	1003017	690	167
0	1004217	691	115
0	1005445	692	119
0	1007296	693	218
0	1008974	694	165
0	1010818	695	179
0	1012212	696	125
0	1013754	697	143
0	1015088	698	131
0	1016557	699	132
0	1017875	700	116
0	1019507	701	165
0	1021143	702	163
0	1022403	703	109
0	1024034	704	160
0	1025447	705	134
0	1026864	706	134
0	1028118	707	117
0	1029737	708	142
0	1031444	709	144
0	1032629	710	97
0	1033988	711	138
0	1035411	712	150
0	1036859	713	125
0	1038354	714	150
0	1039996	715	137
0	1041274	716	105
0	1042651	717	144
0	1044203	718	155
0	1045810	719	186
0	1047186	720	126
0	1048337	721	110
0	1049979	722	147
0	1051323	723	145
0	1052875	724	151
0	1054343	725	143
0	1055652	726	110
0	1057156	727	139
0	1058553	728	138
0	1059885	729	107
0	1061554	730	165
0	1062609	731	98
0	1063962	732	122
0	1065331	733	136
0	1066356	734	98
0	1067658	735	113
0	1069150	736	129
0	1070712	737	159
0	1072320	738	157
0	1073914	739	147
0	1075533	740	153
0	1076785	741	113
0	1078154	742	120
0	1079816	743	171
0	1081152	744	121
0	1082690	745	139
0	1084329	746	192
0	1086148	747	198
0	1087655	748	152
0	1089113	749	153
0	1090612	750	135
0	1091765	751	104
0	1092978	752	130
0	1094529	753	152
0	1096240	754	166
0	1097538	755	123
0	1098963	756	150
0	1100577	757	145
0	1101855	758	111
0	1103277	759	149
0	1104784	760	141
0	1106162	761	127
0	1107780	762	173
0	1109346	763	143
0	1110680	764	117
0	1112458	765	165
0	1113714	766	125
0	1114990	767	139
0	1116471	768	146
0	1117870	769	132
0	1119136	770	128
0	1120581	771	148
0	1122139	772	159
0	1123263	773	105
0	1125036	774	188
0	1126381	775	132
0	1127791	776	159
0	1129233	777	143
0	1130714	778	156
0	1132459	779	168
0	1133928	780	127
0	1135628	781	163
0	1137083	782	138
0	1138722	783	166
0	1140032	784	125
0	1141367	785	118
0	1142800	786	132
0	1144451	787	154
0	1145721	788	107
0	1147324	789	152
0	1149020	790	174
0	1150833	791	176
0	1152374	792	142
0	1153782	793	141
0	1154791	794	78
0	1156068	795	112
0	1157506	796	127
0	1159232	797	169
0	1160418	798	117
0	1161784	799	123
0	1163201	800	127
0	1165178	801	202
0	1166811	802	162
0	1168348	803	132
0	1170076	804	165
0	1171840	805	191
0	1173369	806	126
0	1174854	807	154
0	1176313	808	140
0	1177620	809	130
0	1178874	810	126
0	1180499	811	164
0	1181944	812	146
0	1183361	813	126
0	1184750	814	128
0	1186250	815	157
0	1187513	816	102
0	1189207	817	191
0	1190832	818	138
0	1192111	819	96
0	1193319	820	116
0	1194917	821	151
0	1196618	822	176
0	1198280	823	179
0	1199872	824	169
0	1201445	825	148
0	1202947	826	137
0	1204293	827	133
0	1205607	828	131
0	1207244	829	148
0	1208800	830	136
0	1209995	831	130
0	1211316	832	128
0	1212964	833	173
0	1214247	834	114
0	1215788	835	154
0	1217528	836	191
0	1218729	837	104
0	1220185	838	137
0	1221578	839	136
0	1223140	840	140
0	1224541	841	126
0	1226130	842	142
0	1227828	843	175
0	1229378	844	165
0	1230837	845	138
0	1232177	846	109
0	1233765	847	153
0	1235370	848	160
0	1236866	849	151
0	1238228	850	130
0	1239672	851	131
0	1241026	852	129
0	1242314	853	115
0	1243874	854	161
0	1245596	855	159
0	1246625	856	96
0	1247996	857	118
0	1249500	858	113
0	1250870	859	123
0	1252304	860	114
0	1253715	861	146
0	1255593	862	187
0	1256855	863	99
0	1258381	864	155
0	1260388	865	198
0	1261807	866	136
0	1263189	867	129
0	1264481	868	131
0	1265982	869	138
0	1267761	870	177
0	1269194	871	118
0	1270736	872	131
0	1272441	873	136
0	1274122	874	176
0	1275245	875	112
0	1276668	876	134
0	1278037	877	126
0	1279633	878	151
0	1281164	879	150
0	1282247	880	85
0	1283545	881	139
0	1285077	882	141
0	1286693	883	157
0	1288134	884	138
0	1289799	885	154
0	1291248	886	140
0	1292655	887	154
0	1294453	888	167
0	1296182	889	176
0	1297742	890	164
0	1298617	891	82
0	1300192	892	170
0	1301818	893	153
0	1303290	894	131
0	1304381	895	90
0	1305490	896	114
0	1307227	897	178
0	1308586	898	138
0	1310058	899	133
0	1311459	900	151
0	1312655	901	121
0	1313669	902	103
0	1314881	903	129
0	1316090	904	120
0	1317457	905	130
0	1318982	906	150
0	1320582	907	159
0	1321917	908	124
0	1323224	909	124
0	1324458	910	130
0	1325722	911	109
0	1327283	912	152
0	1328800	913	164
0	1330546	914	175
0	1331822	915	109
0	1333381	916	158
0	1334819	917	151
0	1336022	918	106
0	1337437	919	102
0	1338870	920	149
0	1340175	921	122
0	1341522	922	126
0	1343349	923	194
0	1344893	924	153
0	1346369	925	149
0	1347957	926	131
0	1349425	927	145
0	1350771	928	129
0	1352060	929	112
0	1353298	930	122
0	1354531	931	104
0	1355691	932	101
0	1356750	933	94
0	1358298	934	129
0	1359734	935	137
0	1361243	936	148
0	1362998	937	166
0	1364432	938	133
0	1366028	939	147
0	1367706	940	150
0	1369232	941	161
0	1371117	942	190
0	1372782	943	168
0	1374212	944	133
0	1375828	945	167
0	1377648	946	185
0	1378916	947	125
0	1380286	948	139
0	1381970	949	163
0	1383463	950	149
0	1385185	951	165
0	1386588	952	132
0	1388129	953	166
0	1389501	954	127
0	1391047	955	151
0	1392263	956	111
0	1393824	957	158
0	1395604	958	179
0	1397482	959	185
0	1399019	960	133
0	1400446	961	156
0	1402186	962	191
0	1403880	963	163
0	1405119	964	114
0	1406848	965	184
0	1408214	966	123
0	1409780	967	175
0	1411155	968	144
0	1412588	969	136
0	1414280	970	168
0	1416048	971	191
0	1417306	972	117
0	1418551	973	112
0	1419667	974	111
0	1421031	975	143
0	1422722	976	162
0	1424511	977	164
0	1425983	978	137
0	1427363	979	133
0	1428703	980	132
0	1430055	981	125
0	1431289	982	85
0	1432766	983	144
0	1433982	984	103
0	1435418	985	149
0	1436885	986	124
0	1438448	987	142
0	1439957	988	146
0	1441532	989	142
0	1443086	990	150
0	1444689	991	148
0	1445903	992	113
0	1447449	993	163
0	1448626	994	124
0	1449654	995	83
0	1451264	996	159
0	1452630	997	129
0	1454361	998	174
0	1455742	999	128
0	1457168	1000	130
0	1458416	1001	121
0	1459979	1002	158
0	1461263	1003	125
0	1462790	1004	142
0	1464226	1005	133
0	1465977	1006	170
0	1467162	1007	108
0	1468326	1008	105
0	1470072	1009	171
0	1471646	1010	158
0	1473040	1011	139
0	1474452	1012	141
0	1475767	1013	150
0	1477229	1014	131
0	1478323	1015	107
0	1479964	1016	138
0	1481443	1017	136
0	1483104	1018	152
0	1484661	1019	156
0	1485986	1020	137
0	1487297	1021	120
0	1488846	1022	176
0	1490253	1023	134
0	1491799	1024	131
0	1493218	1025	142
0	1494644	1026	121
0	1496267	1027	140
0	1497775	1028	137
0	1499230	1029	148
0	1501003	1030	153
0	1502299	1031	129
0	1503550	1032	112
0	1505158	1033	163
0	1506834	1034	177
0	1508294	1035	125
0	1509942	1036	171
0	1511534	1037	165
0	1512943	1038	138
0	1514143	1039	109
0	1515766	1040	133
0	1516945	1041	98
0	1518219	1042	107
0	1519590	1043	124
0	1520707	1044	106
0	1522498	1045	200
0	1523914	1046	127
0	1525268	1047	127
0	1526471	1048	118
0	1527676	1049	124
0	1528890	1050	112
0	1530359	1051	146
0	1531979	1052	159
0	1533639	1053	177
0	1535150	1054	128
0	1536574	1055	125
0	1538017	1056	142
0	1539439	1057	143
0	1541204	1058	170
0	1542754	1059	157
0	1544232	1060	132
0	1545342	1061	109
0	1546724	1062	139
0	1547990	1063	121
0	1549711	1064	170
0	1551506	1065	182
0	1552879	1066	114
0	1554401	1067	151
0	1556010	1068	158
0	1557483	1069	136
0	1558793	1070	114
0	1560070	1071	120
0	1561623	1072	150
0	1563302	1073	170
0	1564602	1074	135
0	1565951	1075	134
0	1567563	1076	165
0	1569056	1077	138
0	1570563	1078	168
0	1572157	1079	145
0	1573565	1080	118
0	1574717	1081	107
0	1575929	1082	105
0	1577236	1083	114
0	1578456	1084	121
0	1580043	1085	154
0	1581441	1086	135
0	1582639	1087	123
0	1584013	1088	135
0	1585471	1089	129
0	1587308	1090	189
0	1588748	1091	129
0	1590203	1092	144
0	1591813	1093	147
0	1593386	1094	154
0	1594974	1095	165
0	1596219	1096	126
0	1597500	1097	108
0	1599054	1098	163
0	1600575	1099	134
0	1602075	1100	146
0	1603463	1101	133
0	1604681	1102	101
0	1606193	1103	137
0	1607517	1104	123
0	1609077	1105	155
0	1610206	1106	104
0	1611475	1107	100
0	1612732	1108	116
0	1614465	1109	168
0	1616042	1110	173
0	1617330	1111	119
0	1618632	1112	135
0	1620261	1113	148
0	1621905	1114	159
0	1623279	1115	147
0	1624807	1116	139
0	1626288	1117	140
0	1627846	1118	159
0	1629192	1119	115
0	1630908	1120	140
0	1632753	1121	188
0	1634074	1122	120
0	1635674	1123	155
0	1637251	1124	152
0	1638595	1125	135
0	1639877	1126	113
0	1641669	1127	193
0	1643106	1128	136
0	1644454	1129	117
0	1645536	1130	112
0	1647209	1131	156
0	1648494	1132	136
0	1649695	1133	110
0	1651213	1134	145
0	1652696	1135	142
0	1654313	1136	156
0	1655612	1137	134
0	1657253	1138	148
0	1658852	1139	142
0	1660590	1140	178
0	1662056	1141	141
0	1663640	1142	155
0	1664889	1143	126
0	1666601	1144	175
0	1667880	1145	132
0	1669095	1146	104
0	1670994	1147	182
0	1672104	1148	95
0	1673377	1149	112
0	1674646	1150	127
0	1676074	1151	145
0	1677873	1152	168
0	1678962	1153	94
0	1680359	1154	158
0	1681983	1155	151
0	1683470	1156	152
0	1685115	1157	150
0	1686482	1158	134
0	1688114	1159	153
0	1689456	1160	120
0	1690786	1161	107
0	1692318	1162	151
0	1693919	1163	148
0	1695419	1164	133
0	1697154	1165	180
0	1698828	1166	157
0	1700251	1167	146
0	1701630	1168	126
0	1703269	1169	158
0	1704841	1170	148
0	1706273	1171	149
0	1707558	1172	128
0	1709117	1173	154
0	1710336	1174	110
0	1711823	1175	140
0	1713093	1176	111
0	1714784	1177	160
0	1716553	1178	192
0	1717888	1179	120
0	1719375	1180	119
0	1720837	1181	127
0	1722180	1182	134
0	1723703	1183	136
0	1724920	1184	122
0	1726549	1185	160
0	1728082	1186	152
0	1729660	1187	155
0	1731135	1188	158
0	1732439	1189	129
0	1733946	1190	141
0	1735566	1191	145
0	1737345	1192	196
0	1738550	1193	124
0	1740033	1194	156
0	1741768	1195	182
0	1743244	1196	135
0	1744675	1197	142
0	1746127	1198	147
0	1747684	1199	146
0	1749139	1200	139
0	1750767	1201	145
0	1752033	1202	121
0	1753593	1203	145
0	1755129	1204	139
0	1756585	1205	129
0	1757815	1206	123
0	1759463	1207	149
0	1761022	1208	138
0	1762268	1209	119
0	1763633	1210	123
0	1765103	1211	135
0	1766640	1212	144
0	1768206	1213	139
0	1769394	1214	111
0	1770923	1215	158
0	1772239	1216	125
0	1773402	1217	96
0	1774635	1218	112
0	1775857	1219	109
0	1777405	1220	162
0	1778884	1221	144
0	1780307	1222	146
0	1781711	1223	125
0	1783189	1224	123
0	1784991	1225	173
0	1786463	1226	143
0	1787993	1227	131
0	1789389	1228	133
0	1790656	1229	114
0	1792350	1230	162
0	1793587	1231	108
0	1794901	1232	107
0	1796279	1233	159
0	1797691	1234	131
0	1799113	1235	129
0	1800900	1236	188
0	1802461	1237	140
0	1803789	1238	111
0	1804852	1239	96
0	1806468	1240	162
0	1807823	1241	124
0	1809095	1242	109
0	1810366	1243	138
0	1811668	1244	125
0	1813086	1245	139
0	1814653	1246	146
0	1816000	1247	134
0	1817642	1248	157
0	1819270	1249	159
0	1820662	1250	152
0	1822302	1251	173
0	1823758	1252	147
0	1825313	1253	144
0	1826870	1254	152
0	1828555	1255	168
0	1829787	1256	121
0	1831224	1257	136
0	1832256	1258	89
0	1833888	1259	149
0	1835572	1260	180
0	1837237	1261	144
0	1838744	1262	162
0	1840666	1263	179
0	1841906	1264	105
0	1843401	1265	150
0	1844745	1266	125
0	1846427	1267	163
0	1847663	1268	113
0	1849170	1269	158
0	1850412	1270	108
0	1851735	1271	128
0	1853326	1272	138
0	1855005	1273	150
0	1856620	1274	170
0	1857855	1275	110
0	1859253	1276	149
0	1860550	1277	126
0	1861978	1278	141
0	1863353	1279	130
0	1865022	1280	175
0	1866164	1281	99
0	1867861	1282	176
0	1869182	1283	144
0	1870555	1284	124
0	1871898	1285	110
0	1873441	1286	158
0	1874955	1287	155
0	1876087	1288	93
0	1877646	1289	160
0	1879192	1290	152
0	1880833	1291	168
0	1882205	1292	143
0	1883400	1293	116
0	1884673	1294	126
0	1886003	1295	143
0	1887601	1296	145
0	1889051	1297	123
0	1890605	1298	145
0	1892152	1299	138
0	1893557	1300	129
0	1895048	1301	142
0	1896440	1302	133
0	1897779	1303	116
0	1899360	1304	146
0	1900754	1305	125
0	1902095	1306	124
0	1903674	1307	142
0	1905054	1308	127
0	1906517	1309	142
0	1908031	1310	134
0	1909334	1311	122
0	1910957	1312	148
0	1912252	1313	116
0	1913745	1314	158
0	1915334	1315	146
0	1917000	1316	175
0	1918837	1317	184
0	1920168	1318	114
0	1921461	1319	122
0	1922885	1320	144
0	1924678	1321	174
0	1926443	1322	190
0	1927853	1323	149
0	1929322	1324	130
0	1930613	1325	112
0	1931950	1326	108
0	1933277	1327	126
0	1934521	1328	105
0	1936048	1329	156
0	1937476	1330	130
0	1938959	1331	138
0	1940460	1332	150
0	1942006	1333	137
0	1943491	1334	124
0	1944951	1335	139
0	1946272	1336	118
0	1947720	1337	133
0	1949091	1338	126
0	1950774	1339	180
0	1952274	1340	154
0	1953496	1341	131
0	1954952	1342	141
0	1956621	1343	176
0	1958214	1344	152
0	1959569	1345	136
0	1961077	1346	143
0	1962822	1347	150
0	1964254	1348	151
0	1965774	1349	141
0	1967253	1350	145
0	1968705	1351	137
0	1970122	1352	138
0	1971541	1353	120
0	1973198	1354	156
0	1974435	1355	126
0	1975831	1356	143
0	1977133	1357	131
0	1978413	1358	117
0	1979772	1359	150
0	1981325	1360	147
0	1982488	1361	112
0	1983807	1362	112
0	1985196	1363	132
0	1986709	1364	164
0	1988357	1365	181
0	1989777	1366	131
0	1991161	1367	111
0	1992560	1368	142
0	1993992	1369	135
0	1995420	1370	152
0	1996882	1371	145
0	1998427	1372	140
0	1999962	1373	146
0	2001509	1374	150
0	2003189	1375	181
0	2005010	1376	190
0	2006317	1377	124
0	2007551	1378	111
0	2008711	1379	115
0	2010312	1380	177
0	2011675	1381	118
0	2013023	1382	119
0	2014138	1383	92
0	2015921	1384	188
0	2016953	1385	83
0	2018474	1386	144
0	2019772	1387	123
0	2021218	1388	139
0	2022856	1389	173
0	2024480	1390	154
0	2026212	1391	171
0	2027443	1392	108
0	2028985	1393	161
0	2030373	1394	139
0	2031580	1395	114
0	2032916	1396	133
0	2034484	1397	145
0	2035922	1398	141
0	2037780	1399	183
0	2039110	1400	124
0	2040526	1401	133
0	2041858	1402	115
0	2043344	1403	129
0	2044934	1404	157
0	2046678	1405	145
0	2048126	1406	139
0	2049324	1407	127
0	2050799	1408	146
0	2052024	1409	104
0	2053696	1410	156
0	2055363	1411	138
0	2056808	1412	138
0	2058024	1413	113
0	2059807	1414	182
0	2061367	1415	159
0	2063109	1416	171
0	2064457	1417	151
0	2065872	1418	134
0	2067576	1419	157
0	2069036	1420	134
0	2070680	1421	147
0	2072209	1422	142
0	2073797	1423	149
0	2075060	1424	116
0	2076252	1425	125
0	2077875	1426	156
0	2079472	1427	160
0	2080785	1428	126
0	2082133	1429	127
0	2083517	1430	126
0	2084941	1431	119
0	2086368	1432	132
0	2087868	1433	147
0	2089512	1434	169
0	2090603	1435	96
0	2092181	1436	167
0	2093695	1437	143
0	2095008	1438	142
0	2096147	1439	102
0	2097618	1440	147
0	2099153	1441	152
0	2100680	1442	150
0	2102242	1443	143
0	2104008	1444	157
0	2105354	1445	143
0	2107053	1446	172
0	2108382	1447	136
0	2109572	1448	115
0	2111236	1449	181
0	2112623	1450	113
0	2113936	1451	134
0	2115417	1452	138
0	2116975	1453	145
0	2118241	1454	143
0	2119802	1455	156
0	2121384	1456	161
0	2122831	1457	142
0	2124346	1458	134
0	2125829	1459	154
0	2127364	1460	149
0	2129126	1461	163
0	2130523	1462	116
0	2132231	1463	167
0	2134059	1464	189
0	2135678	1465	152
0	2137221	1466	152
0	2138641	1467	123
0	2140134	1468	144
0	2141563	1469	136
0	2142849	1470	140
0	2144163	1471	121
0	2145304	1472	114
0	2147029	1473	174
0	2148483	1474	129
0	2149919	1475	137
0	2151289	1476	157
0	2152746	1477	136
0	2154210	1478	151
0	2155473	1479	120
0	2156780	1480	113
0	2158285	1481	140
0	2159607	1482	143
0	2161056	1483	150
0	2162456	1484	125
0	2164168	1485	171
0	2165607	1486	144
0	2167257	1487	153
0	2168718	1488	124
0	2170223	1489	168
0	2171808	1490	151
0	2173333	1491	160
0	2174800	1492	134
0	2176371	1493	150
0	2177605	1494	115
0	2178973	1495	121
0	2180215	1496	109
0	2181515	1497	115
0	2182639	1498	105
0	2184179	1499	137
0	2185670	1500	131
0	2187252	1501	161
0	2188725	1502	152
0	2189923	1503	115
0	2191466	1504	142
0	2193114	1505	161
0	2194257	1506	126
0	2195911	1507	183
0	2197353	1508	147
0	2198937	1509	145
0	2200296	1510	127
0	2202216	1511	177
0	2203586	1512	133
0	2204854	1513	121
0	2206366	1514	131
0	2207652	1515	107
0	2208997	1516	122
0	2210263	1517	123
0	2211662	1518	140
0	2213014	1519	131
0	2214629	1520	169
0	2216233	1521	145
0	2217482	1522	116
0	2218843	1523	128
0	2220352	1524	156
0	2221990	1525	159
0	2223064	1526	87
0	2224496	1527	113
0	2226014	1528	157
0	2227436	1529	141
0	2228931	1530	145
0	2230192	1531	110
0	2231843	1532	172
0	2233698	1533	170
0	2235283	1534	144
0	2236828	1535	156
0	2238212	1536	133
0	2239677	1537	156
0	2241043	1538	131
0	2242700	1539	152
0	2244228	1540	148
0	2245874	1541	165
0	2247460	1542	153
0	2249028	1543	141
0	2250777	1544	176
0	2252542	1545	184
0	2253993	1546	144
0	2255218	1547	118
0	2256477	1548	110
0	2258128	1549	154
0	2259583	1550	135
0	2261314	1551	164
0	2262753	1552	134
0	2263995	1553	119
0	2265105	1554	99
0	2266718	1555	160
0	2268016	1556	113
0	2269315	1557	136
0	2270687	1558	141
0	2272186	1559	154
0	2273810	1560	142
0	2275470	1561	163
0	2276848	1562	121
0	2278300	1563	143
0	2279897	1564	140
0	2281243	1565	139
0	2282348	1566	110
0	2283721	1567	118
0	2285314	1568	146
0	2286974	1569	167
0	2288838	1570	200
0	2290422	1571	149
0	2291744	1572	119
0	2293136	1573	147
0	2294388	1574	117
0	2295787	1575	160
0	2297221	1576	123
0	2298536	1577	118
0	2299883	1578	126
0	2301387	1579	127
0	2303304	1580	193
0	2304592	1581	131
0	2306020	1582	143
0	2307687	1583	158
0	2308995	1584	123
0	2310496	1585	146
0	2312099	1586	178
0	2313731	1587	161
0	2315082	1588	122
0	2316732	1589	159
0	2318411	1590	163
0	2319851	1591	125
0	2321083	1592	127
0	2322593	1593	147
0	2323899	1594	127
0	2325487	1595	165
0	2327022	1596	146
0	2328677	1597	166
0	2330334	1598	154
0	2331918	1599	141
0	2333342	1600	134
0	2335031	1601	168
0	2336865	1602	191
0	2338416	1603	134
0	2339690	1604	127
0	2341400	1605	167
0	2342717	1606	124
0	2344156	1607	150
0	2345778	1608	159
0	2347188	1609	143
0	2348651	1610	127
0	2349875	1611	111
0	2351535	1612	151
0	2353340	1613	184
0	2354728	1614	127
0	2355842	1615	103