version 3
run SimulationTime-353-20240107-16:19:22-13568
attr configname SimulationTime
attr datetime 20240107-16:19:22
attr datetimef 20240107-161922
attr experiment SimulationTime
attr inifile omnetpp.ini
attr iterationvars ""
attr iterationvarsd ""
attr iterationvarsf ""
attr measurement ""
attr network System
attr processid 13568
attr repetition 353
attr replication #353
attr resultdir results
attr runnumber 353
attr seedset 353
config **.cpu.rate 1000
config **.hd.rateProcessing 250
config **.webServer.web_server_rate 100
config **.p1 0.35
config **.p2 0.40
config network System
config num-rngs 4
config **.cpu.rng-0 0
config **.cpu.rng-1 1
config **.hd.rng-0 2
config **.webServer.rng-0 3
config repeat 500
config seed-set 353
config sim-time-limit 10000s
config **.client.numClients 40

vector 0 System.server.cpu requestCounterStat:vector ETV
attr recordingmode vector
attr source requestCounter
vector 1 System.server.hd utilizationHdStat:vector ETV
attr recordingmode vector
attr source utilizationHd
vector 2 System.server.cpu utilizationCpuStat:vector ETV
attr recordingmode vector
attr source utilizationCpu
vector 3 System.webServer utilizationWsStat:vector ETV
attr recordingmode vector
attr source utilizationWs
0	1618	1	159
0	3285	2	170
0	4680	3	146
0	6208	4	143
0	7642	5	133
0	9426	6	185
0	10415	7	74
0	12110	8	162
0	13263	9	94
0	14709	10	126
0	15977	11	127
0	17373	12	141
0	18609	13	95
0	19925	14	127
0	21298	15	142
0	22677	16	140
0	24100	17	144
0	25583	18	116
0	27202	19	154
0	28627	20	135
0	30284	21	174
0	31602	22	123
0	32726	23	111
0	33843	24	106
0	35159	25	137
0	37006	26	162
0	38316	27	119
0	39696	28	119
0	40990	29	125
0	42593	30	135
0	43854	31	110
0	45432	32	167
0	47082	33	161
0	48638	34	155
0	50078	35	145
0	51575	36	148
0	53100	37	138
0	54708	38	159
0	56159	39	132
0	57719	40	154
0	59286	41	158
0	60575	42	120
0	62031	43	141
0	63519	44	143
0	65281	45	183
0	66642	46	126
0	67908	47	123
0	69213	48	108
0	70619	49	135
0	72059	50	108
0	73583	51	137
0	75256	52	166
0	76705	53	134
0	78102	54	128
0	79316	55	117
0	80723	56	144
0	82019	57	131
0	83584	58	162
0	84796	59	111
0	86402	60	156
0	88146	61	173
0	89669	62	138
0	91004	63	134
0	92245	64	110
0	93745	65	147
0	95271	66	141
0	96694	67	128
0	98051	68	132
0	99565	69	151
0	100913	70	132
0	102365	71	153
0	104031	72	161
0	105813	73	191
0	106958	74	114
0	108115	75	110
0	109499	76	131
0	110965	77	145
0	112501	78	139
0	113958	79	122
0	115552	80	152
0	117131	81	156
0	118647	82	151
0	119916	83	136
0	121096	84	111
0	122431	85	138
0	123921	86	133
0	125247	87	149
0	126856	88	148
0	128539	89	172
0	129939	90	134
0	131361	91	137
0	132655	92	135
0	134420	93	184
0	135956	94	133
0	137729	95	168
0	139119	96	111
0	140460	97	118
0	141693	98	114
0	143011	99	127
0	144636	100	153
0	145870	101	113
0	147222	102	113
0	148651	103	128
0	149974	104	146
0	151368	105	115
0	152845	106	132
0	154563	107	163
0	156074	108	150
0	157360	109	127
0	158947	110	165
0	160354	111	138
0	161849	112	166
0	163654	113	186
0	164885	114	108
0	166048	115	94
0	167622	116	167
0	168947	117	124
0	170358	118	144
0	171910	119	149
0	173128	120	108
0	174463	121	122
0	175950	122	152
0	177256	123	113
0	178863	124	158
0	180794	125	198
0	182148	126	139
0	183992	127	161
0	185417	128	154
0	186798	129	138
0	188306	130	148
0	189603	131	104
0	191062	132	138
0	192675	133	152
0	194025	134	131
0	195244	135	110
0	196744	136	151
0	198153	137	130
0	199383	138	103
0	200828	139	138
0	201807	140	79
0	203173	141	113
0	204376	142	112
0	205768	143	139
0	207286	144	149
0	208409	145	100
0	209945	146	135
0	211241	147	127
0	212735	148	137
0	213936	149	120
0	215433	150	151
0	216674	151	136
0	217696	152	95
0	219102	153	131
0	220682	154	149
0	222264	155	171
0	223741	156	150
0	225285	157	137
0	226839	158	169
0	228467	159	161
0	229759	160	112
0	231507	161	183
0	232860	162	138
0	234273	163	128
0	236186	164	196
0	237585	165	134
0	239004	166	130
0	240575	167	158
0	242002	168	142
0	243611	169	162
0	245224	170	173
0	246593	171	112
0	247796	172	110
0	248961	173	128
0	250318	174	136
0	251896	175	143
0	253190	176	125
0	254419	177	124
0	255644	178	134
0	257089	179	138
0	258413	180	118
0	259871	181	135
0	261516	182	168
0	262919	183	138
0	264305	184	119
0	265927	185	145
0	267557	186	153
0	269046	187	164
0	270734	188	179
0	272174	189	125
0	273742	190	148
0	275220	191	139
0	276638	192	127
0	278418	193	171
0	279862	194	133
0	281548	195	175
0	283106	196	145
0	284820	197	163
0	285989	198	106
0	287120	199	98
0	288479	200	123
0	289905	201	145
0	291388	202	132
0	292966	203	141
0	294644	204	151
0	296215	205	142
0	297864	206	136
0	299299	207	142
0	300857	208	155
0	301926	209	92
0	303033	210	111
0	304293	211	123
0	305852	212	126
0	307195	213	148
0	308825	214	157
0	310186	215	112
0	311801	216	138
0	313196	217	124
0	314670	218	139
0	316231	219	146
0	317920	220	175
0	319432	221	149
0	320777	222	130
0	322059	223	121
0	323929	224	195
0	325309	225	129
0	326656	226	116
0	328311	227	172
0	329756	228	140
0	331468	229	167
0	333038	230	148
0	334467	231	138
0	335819	232	115
0	337235	233	129
0	338439	234	109
0	339763	235	125
0	341677	236	205
0	342874	237	118
0	344304	238	139
0	345766	239	145
0	347266	240	134
0	348472	241	103
0	349797	242	116
0	351075	243	115
0	352406	244	126
0	353727	245	116
0	355309	246	143
0	357074	247	186
0	358317	248	124
0	359828	249	134
0	360960	250	88
0	362655	251	160
0	364346	252	152
0	366102	253	167
0	367756	254	157
0	369338	255	163
0	370738	256	137
0	372348	257	161
0	373602	258	113
0	375441	259	164
0	376967	260	168
0	378581	261	169
0	379990	262	118
0	381541	263	158
0	383160	264	138
0	384607	265	130
0	385871	266	121
0	387319	267	143
0	388660	268	134
0	389920	269	121
0	391169	270	115
0	392622	271	152
0	394138	272	151
0	395248	273	105
0	396556	274	117
0	397993	275	136
0	399236	276	114
0	400517	277	124
0	402173	278	163
0	403485	279	105
0	405070	280	175
0	406765	281	164
0	408065	282	107
0	409423	283	121
0	411031	284	147
0	412294	285	122
0	413921	286	164
0	415194	287	116
0	417062	288	181
0	418484	289	127
0	419948	290	120
0	421282	291	135
0	422453	292	114
0	424199	293	147
0	425663	294	137
0	427324	295	172
0	428725	296	134
0	430136	297	134
0	431567	298	152
0	432970	299	138
0	434443	300	143
0	435798	301	122
0	437304	302	163
0	438777	303	140
0	440081	304	131
0	441536	305	136
0	443169	306	166
0	444380	307	110
0	445632	308	119
0	446983	309	118
0	448191	310	100
0	449579	311	121
0	450957	312	137
0	452208	313	106
0	453906	314	177
0	455276	315	141
0	457037	316	186
0	458558	317	148
0	459810	318	121
0	461397	319	150
0	462690	320	103
0	464174	321	129
0	465452	322	127
0	467157	323	180
0	468601	324	129
0	470275	325	167
0	472053	326	171
0	473355	327	123
0	474774	328	138
0	476070	329	127
0	477264	330	112
0	479170	331	189
0	480435	332	124
0	481981	333	139
0	483298	334	150
0	484645	335	130
0	486053	336	141
0	487474	337	146
0	488880	338	137
0	490250	339	131
0	491572	340	122
0	493424	341	175
0	494738	342	125
0	496094	343	149
0	497527	344	140
0	498913	345	123
0	500265	346	137
0	501515	347	107
0	502816	348	128
0	504473	349	178
0	505722	350	133
0	506768	351	99
0	508315	352	154
0	509658	353	130
0	510997	354	120
0	512467	355	133
0	513793	356	125
0	515099	357	113
0	516535	358	127
0	518085	359	161
0	519555	360	150
0	520748	361	108
0	522126	362	117
0	523717	363	154
0	525172	364	150
0	526789	365	154
0	528087	366	119
0	529639	367	185
0	530722	368	102
0	532083	369	120
0	533505	370	138
0	534859	371	135
0	536497	372	151
0	538151	373	159
0	539847	374	151
0	541241	375	143
0	542858	376	150
0	544590	377	165
0	546263	378	164
0	547594	379	118
0	549248	380	152
0	551005	381	182
0	552323	382	133
0	554077	383	177
0	555258	384	118
0	556579	385	108
0	558113	386	137
0	559417	387	125
0	561430	388	220
0	563083	389	146
0	564551	390	174
0	565969	391	139
0	567264	392	110
0	568697	393	132
0	570230	394	136
0	571588	395	143
0	573265	396	148
0	574771	397	139
0	576289	398	139
0	577786	399	144
0	579221	400	147
0	580763	401	143
0	582660	402	200
0	583919	403	112
0	585432	404	158
0	586866	405	133
0	587818	406	91
0	589454	407	159
0	590708	408	117
0	592096	409	129
0	593484	410	140
0	594921	411	138
0	596573	412	161
0	597834	413	108
0	599249	414	146
0	600322	415	98
0	601588	416	97
0	603182	417	131
0	604443	418	118
0	605767	419	123
0	607186	420	143
0	608621	421	142
0	610237	422	167
0	611544	423	126
0	612977	424	148
0	614393	425	135
0	615859	426	153
0	617189	427	131
0	618613	428	125
0	619996	429	138
0	621353	430	135
0	622966	431	174
0	624609	432	152
0	626407	433	159
0	628311	434	185
0	629747	435	133
0	631035	436	127
0	632573	437	139
0	634444	438	170
0	636012	439	147
0	637614	440	158
0	638872	441	123
0	640378	442	147
0	642203	443	176
0	643591	444	121
0	644897	445	123
0	646884	446	202
0	648415	447	142
0	650255	448	201
0	651681	449	139
0	652875	450	110
0	654591	451	173
0	656185	452	157
0	657533	453	123
0	658841	454	97
0	660099	455	115
0	661490	456	138
0	663239	457	192
0	664739	458	153
0	666038	459	106
0	667614	460	152
0	668920	461	139
0	670185	462	114
0	671476	463	124
0	672537	464	100
0	674359	465	197
0	675568	466	122
0	676740	467	93
0	678313	468	144
0	679702	469	132
0	681063	470	129
0	682570	471	128
0	684019	472	140
0	685807	473	191
0	687013	474	109
0	688528	475	152
0	689944	476	135
0	691230	477	107
0	692759	478	140
0	694019	479	129
0	695623	480	144
0	697144	481	164
0	698379	482	96
0	699652	483	124
0	701296	484	159
0	702958	485	171
0	704625	486	156
0	706139	487	137
0	707835	488	161
0	709099	489	121
0	710574	490	121
0	711683	491	104
0	713181	492	139
0	714277	493	93
0	715601	494	127
0	717099	495	145
0	718370	496	118
0	719912	497	143
0	721250	498	117
0	723201	499	202
0	724805	500	162
0	726120	501	116
0	727594	502	153
0	729390	503	185
0	731045	504	170
0	732416	505	140
0	733648	506	107
0	735400	507	145
0	736846	508	143
0	738304	509	129
0	739728	510	150
0	741158	511	119
0	742623	512	156
0	744133	513	149
0	745356	514	116
0	746952	515	153
0	748384	516	141
0	749714	517	125
0	751082	518	131
0	753058	519	187
0	755007	520	185
0	756770	521	148
0	758146	522	119
0	759089	523	96
0	760640	524	144
0	762025	525	136
0	763384	526	118
0	764852	527	161
0	766303	528	142
0	767742	529	146
0	769117	530	135
0	770479	531	133
0	772170	532	162
0	773537	533	128
0	774901	534	121
0	776486	535	158
0	777824	536	123
0	779097	537	104
0	780403	538	147
0	781888	539	146
0	783265	540	129
0	784699	541	135
0	786199	542	165
0	787749	543	151
0	789279	544	127
0	790655	545	129
0	792261	546	151
0	793608	547	126
0	795446	548	183
0	797281	549	180
0	798685	550	130
0	799981	551	125
0	801472	552	150
0	802965	553	156
0	804647	554	147
0	806111	555	137
0	807408	556	120
0	808895	557	152
0	810342	558	150
0	811567	559	106
0	813020	560	131
0	814445	561	152
0	815916	562	132
0	817049	563	102
0	818422	564	136
0	819704	565	119
0	821031	566	126
0	822343	567	131
0	824073	568	161
0	825607	569	155
0	826982	570	133
0	828599	571	156
0	830204	572	158
0	832002	573	169
0	833662	574	161
0	834933	575	110
0	836362	576	124
0	837453	577	116
0	838821	578	125
0	840068	579	128
0	841170	580	106
0	842912	581	165
0	844467	582	140
0	845817	583	143
0	847464	584	162
0	848928	585	145
0	850515	586	154
0	851771	587	121
0	853127	588	123
0	854544	589	130
0	855948	590	132
0	857258	591	119
0	858615	592	144
0	860053	593	135
0	861937	594	207
0	863570	595	142
0	864811	596	128
0	866305	597	149
0	868079	598	159
0	869730	599	172
0	871065	600	137
0	872750	601	166
0	873996	602	113
0	875620	603	185
0	877045	604	136
0	878797	605	173
0	880912	606	216
0	882193	607	130
0	883808	608	160
0	885111	609	116
0	886412	610	127
0	887747	611	134
0	888895	612	105
0	890481	613	149
0	891998	614	150
0	893321	615	138
0	894934	616	180
0	896576	617	159
0	898105	618	146
0	899394	619	128
0	900827	620	143
0	902500	621	174
0	904041	622	144
0	905374	623	136
0	907220	624	189
0	908426	625	105
0	909825	626	114
0	911239	627	125
0	912614	628	126
0	914104	629	143
0	915570	630	148
0	917138	631	145
0	918559	632	132
0	919985	633	135
0	921501	634	141
0	922774	635	118
0	924128	636	129
0	925460	637	101
0	926771	638	100
0	928323	639	131
0	929813	640	140
0	931568	641	178
0	932885	642	142
0	934329	643	133
0	935712	644	128
0	937320	645	157
0	938767	646	144
0	940237	647	147
0	941709	648	141
0	943071	649	123
0	944310	650	123
0	945861	651	148
0	947275	652	135
0	948686	653	142
0	950066	654	133
0	951389	655	132
0	953200	656	174
0	954610	657	121
0	956026	658	153
0	957366	659	117
0	958585	660	97
0	960234	661	160
0	961736	662	135
0	963296	663	125
0	964590	664	117
0	966081	665	136
0	967618	666	132
0	969274	667	151
0	970572	668	129
0	972052	669	143
0	973611	670	151
0	975039	671	137
0	976534	672	142
0	977914	673	117
0	979341	674	122
0	980714	675	140
0	982165	676	140
0	983941	677	173
0	985293	678	133
0	986634	679	142
0	987951	680	119
0	989478	681	146
0	990867	682	120
0	992259	683	119
0	993819	684	155
0	994805	685	83
0	996039	686	123
0	997528	687	148
0	998781	688	114
0	1000125	689	127
0	1001945	690	192
0	1003382	691	132
0	1004947	692	164
0	1006288	693	136
0	1008017	694	172
0	1009411	695	125
0	1011254	696	184
0	1012501	697	118
0	1013969	698	125
0	1015303	699	121
0	1016724	700	133
0	1018272	701	165
0	1019592	702	127
0	1021035	703	134
0	1022502	704	140
0	1024051	705	152
0	1025378	706	122
0	1026753	707	126
0	1028238	708	156
0	1029784	709	147
0	1031198	710	118
0	1032664	711	137
0	1033988	712	133
0	1035468	713	135
0	1036700	714	99
0	1037905	715	98
0	1039386	716	164
0	1040784	717	139
0	1042359	718	146
0	1043680	719	124
0	1045158	720	144
0	1046947	721	186
0	1048298	722	132
0	1049679	723	138
0	1051489	724	187
0	1052907	725	141
0	1054667	726	185
0	1055926	727	92
0	1057436	728	145
0	1058870	729	125
0	1060648	730	178
0	1062027	731	138
0	1063614	732	152
0	1065346	733	179
0	1066956	734	161
0	1068426	735	149
0	1069782	736	125
0	1071083	737	118
0	1072737	738	163
0	1074167	739	133
0	1075663	740	136
0	1076975	741	121
0	1078345	742	121
0	1079743	743	125
0	1081095	744	109
0	1082536	745	132
0	1084010	746	151
0	1085367	747	136
0	1086794	748	130
0	1088326	749	135
0	1089671	750	109
0	1091013	751	105
0	1092722	752	178
0	1093938	753	119
0	1095305	754	138
0	1096722	755	138
0	1098126	756	141
0	1099636	757	149
0	1100887	758	104
0	1102123	759	125
0	1103409	760	130
0	1104842	761	152
0	1106306	762	137
0	1107651	763	140
0	1109220	764	152
0	1110748	765	133
0	1111757	766	84
0	1113220	767	146
0	1114665	768	140
0	1116187	769	151
0	1117735	770	154
0	1119220	771	164
0	1120769	772	156
0	1121949	773	95
0	1123910	774	200
0	1125066	775	101
0	1126525	776	140
0	1128051	777	139
0	1129643	778	147
0	1131190	779	142
0	1132899	780	155
0	1134416	781	154
0	1136060	782	155
0	1137419	783	122
0	1139178	784	162
0	1140687	785	138
0	1142084	786	156
0	1143593	787	124
0	1145192	788	148
0	1146407	789	114
0	1148095	790	152
0	1149893	791	163
0	1151232	792	116
0	1152564	793	119
0	1154200	794	155
0	1155586	795	141
0	1157064	796	143
0	1158616	797	153
0	1159890	798	131
0	1161213	799	114
0	1162803	800	160
0	1164871	801	213
0	1166531	802	155
0	1167679	803	101
0	1169121	804	151
0	1170198	805	104
0	1171721	806	150
0	1173065	807	137
0	1174569	808	157
0	1176137	809	165
0	1177344	810	103
0	1178622	811	123
0	1179967	812	128
0	1181517	813	165
0	1183003	814	147
0	1184396	815	140
0	1186003	816	160
0	1187679	817	147
0	1189168	818	124
0	1190505	819	124
0	1192078	820	159
0	1193448	821	123
0	1195223	822	194
0	1196322	823	92
0	1197722	824	111
0	1199286	825	153
0	1200778	826	143
0	1202194	827	151
0	1203839	828	160
0	1205062	829	126
0	1206159	830	93
0	1207451	831	133
0	1209052	832	170
0	1210352	833	105
0	1211766	834	135
0	1213256	835	143
0	1214798	836	135
0	1216236	837	133
0	1217590	838	129
0	1218470	839	69
0	1219792	840	122
0	1221299	841	154
0	1222704	842	132
0	1223787	843	106
0	1225178	844	136
0	1226622	845	139
0	1227999	846	136
0	1229488	847	142
0	1230778	848	147
0	1232451	849	162
0	1233973	850	166
0	1235592	851	160
0	1236839	852	114
0	1238452	853	176
0	1240224	854	185
0	1241711	855	152
0	1242926	856	122
0	1244143	857	108
0	1245746	858	146
0	1247187	859	138
0	1248457	860	116
0	1249969	861	173
0	1251132	862	98
0	1252653	863	136
0	1254250	864	146
0	1255789	865	128
0	1257292	866	154
0	1258666	867	143
0	1260264	868	149
0	1261594	869	121
0	1263416	870	170
0	1264756	871	113
0	1266600	872	195
0	1268035	873	118
0	1269591	874	143
0	1271135	875	153
0	1272593	876	147
0	1273832	877	126
0	1275495	878	158
0	1276923	879	133
0	1278531	880	176
0	1279932	881	124
0	1281140	882	121
0	1282385	883	114
0	1283857	884	127
0	1285445	885	147
0	1286880	886	146
0	1288260	887	139
0	1289621	888	124
0	1291045	889	133
0	1292257	890	112
0	1293727	891	147
0	1294938	892	126
0	1296457	893	146
0	1297969	894	139
0	1299354	895	130
0	1300493	896	120
0	1302053	897	133
0	1303356	898	140
0	1304552	899	117
0	1306158	900	152
0	1307695	901	146
0	1309253	902	147
0	1310797	903	155
0	1312189	904	151
0	1313451	905	115
0	1314628	906	114
0	1316354	907	173
0	1317826	908	139
0	1319320	909	149
0	1320753	910	149
0	1322649	911	185
0	1324027	912	129
0	1325580	913	148
0	1327479	914	202
0	1329167	915	149
0	1330916	916	180
0	1332643	917	186
0	1334075	918	149
0	1335374	919	132
0	1336805	920	125
0	1338231	921	131
0	1339666	922	152
0	1340977	923	126
0	1342259	924	123
0	1343773	925	139
0	1345112	926	114
0	1346688	927	153
0	1348269	928	146
0	1349686	929	134
0	1351159	930	129
0	1352524	931	142
0	1354162	932	179
0	1355689	933	150
0	1357570	934	192
0	1359259	935	164
0	1360470	936	124
0	1361937	937	148
0	1363385	938	141
0	1364468	939	94
0	1366053	940	139
0	1367328	941	130
0	1368260	942	81
0	1369500	943	125
0	1370850	944	129
0	1372153	945	106
0	1373697	946	131
0	1375396	947	164
0	1376757	948	122
0	1378324	949	138
0	1379948	950	166
0	1381471	951	154
0	1382900	952	126
0	1384497	953	156
0	1385912	954	130
0	1387589	955	160
0	1389259	956	151
0	1391034	957	178
0	1392572	958	149
0	1394055	959	150
0	1395881	960	182
0	1397826	961	190
0	1399262	962	145
0	1400739	963	136
0	1402126	964	134
0	1403519	965	122
0	1404960	966	154
0	1406557	967	160
0	1407894	968	144
0	1409671	969	176
0	1411010	970	145
0	1412699	971	172
0	1414324	972	170
0	1415613	973	136
0	1416954	974	138
0	1418537	975	150
0	1420130	976	150
0	1421590	977	153
0	1423222	978	161
0	1424592	979	137
0	1426231	980	157
0	1427585	981	115
0	1428701	982	105
0	1430204	983	144
0	1431715	984	132
0	1433264	985	152
0	1434742	986	143
0	1436027	987	112
0	1437655	988	155
0	1439139	989	151
0	1440418	990	109
0	1441989	991	146
0	1443309	992	105
0	1444762	993	152
0	1446226	994	139
0	1447646	995	159
0	1449362	996	163
0	1450856	997	157
0	1452408	998	167
0	1453981	999	140
0	1455340	1000	147
0	1456955	1001	158
0	1458534	1002	146
0	1460459	1003	200
0	1461850	1004	142
0	1463300	1005	147
0	1464721	1006	128
0	1466163	1007	129
0	1467684	1008	154
0	1469428	1009	189
0	1471066	1010	148
0	1472321	1011	132
0	1474077	1012	165
0	1475565	1013	129
0	1476829	1014	119
0	1477974	1015	112
0	1479217	1016	116
0	1480835	1017	157
0	1482159	1018	125
0	1483785	1019	167
0	1485389	1020	140
0	1486982	1021	150
0	1488300	1022	107
0	1489854	1023	159
0	1491472	1024	153
0	1492873	1025	126
0	1494566	1026	178
0	1496312	1027	173
0	1497885	1028	166
0	1499182	1029	126
0	1500803	1030	147
0	1502172	1031	128
0	1503573	1032	156
0	1505119	1033	143
0	1506670	1034	166
0	1508181	1035	126
0	1509534	1036	116
0	1511347	1037	184
0	1512565	1038	113
0	1514066	1039	150
0	1515573	1040	147
0	1516964	1041	136
0	1518475	1042	146
0	1519755	1043	113
0	1520973	1044	99
0	1522471	1045	145
0	1524002	1046	130
0	1525469	1047	156
0	1526931	1048	141
0	1528112	1049	110
0	1529929	1050	175
0	1531594	1051	156
0	1532999	1052	152
0	1534379	1053	105
0	1535820	1054	158
0	1537174	1055	153
0	1538714	1056	161
0	1540079	1057	126
0	1541925	1058	203
0	1543312	1059	132
0	1544825	1060	135
0	1546248	1061	144
0	1547610	1062	129
0	1548824	1063	105
0	1550198	1064	113
0	1551760	1065	171
0	1553132	1066	133
0	1554642	1067	133
0	1556064	1068	119
0	1557326	1069	113
0	1558863	1070	143
0	1560158	1071	122
0	1561723	1072	164
0	1563042	1073	112
0	1564820	1074	185
0	1566580	1075	165
0	1567871	1076	110
0	1569320	1077	136
0	1571054	1078	169
0	1572831	1079	174
0	1574399	1080	160
0	1575839	1081	137
0	1577469	1082	159
0	1579284	1083	182
0	1581089	1084	160
0	1582657	1085	143
0	1583970	1086	126
0	1585482	1087	145
0	1587027	1088	162
0	1588536	1089	142
0	1589796	1090	108
0	1591448	1091	165
0	1592932	1092	131
0	1594697	1093	158
0	1595932	1094	110
0	1597417	1095	148
0	1598816	1096	118
0	1600115	1097	124
0	1601579	1098	145
0	1602987	1099	129
0	1604423	1100	136
0	1606092	1101	170
0	1607601	1102	148
0	1608902	1103	120
0	1610224	1104	131
0	1611535	1105	128
0	1612990	1106	140
0	1614352	1107	145
0	1615881	1108	148
0	1617250	1109	124
0	1618514	1110	106
0	1619966	1111	157
0	1621147	1112	128
0	1622516	1113	116
0	1623960	1114	153
0	1625604	1115	173
0	1627180	1116	143
0	1628606	1117	133
0	1629948	1118	117
0	1631142	1119	109
0	1632456	1120	118
0	1633911	1121	136
0	1635346	1122	144
0	1636587	1123	124
0	1637804	1124	116
0	1639189	1125	128
0	1640615	1126	139
0	1642188	1127	148
0	1643476	1128	133
0	1644702	1129	127
0	1645919	1130	123
0	1647809	1131	175
0	1649305	1132	129
0	1650783	1133	159
0	1652297	1134	135
0	1653579	1135	129
0	1655001	1136	139
0	1656467	1137	143
0	1657892	1138	146
0	1659237	1139	126
0	1660880	1140	165
0	1662167	1141	132
0	1663791	1142	155
0	1665206	1143	128
0	1666775	1144	156
0	1668563	1145	191
0	1669852	1146	104
0	1671394	1147	153
0	1672808	1148	143
0	1674182	1149	139
0	1675948	1150	174
0	1677597	1151	152
0	1679431	1152	185
0	1681018	1153	152
0	1682378	1154	133
0	1683913	1155	142
0	1685422	1156	138
0	1686983	1157	134
0	1688383	1158	129
0	1689500	1159	92
0	1691146	1160	162
0	1692888	1161	165
0	1694506	1162	173
0	1695841	1163	130
0	1697686	1164	190
0	1699159	1165	138
0	1700730	1166	154
0	1702031	1167	132
0	1703490	1168	126
0	1704811	1169	108
0	1706103	1170	112
0	1707279	1171	105
0	1708601	1172	115
0	1710062	1173	148
0	1711642	1174	161
0	1713144	1175	145
0	1714731	1176	156
0	1716398	1177	150
0	1717967	1178	164
0	1719341	1179	143
0	1721148	1180	185
0	1722548	1181	117
0	1724156	1182	157
0	1725519	1183	150
0	1726792	1184	112
0	1728286	1185	147
0	1729714	1186	149
0	1731121	1187	114
0	1732583	1188	147
0	1733779	1189	99
0	1735223	1190	152
0	1736505	1191	121
0	1737776	1192	106
0	1739402	1193	171
0	1740373	1194	92
0	1741974	1195	150
0	1743446	1196	139
0	1744687	1197	114
0	1746663	1198	197
0	1747945	1199	119
0	1749191	1200	110
0	1750771	1201	143
0	1752226	1202	146
0	1753732	1203	133
0	1755496	1204	165
0	1757085	1205	140
0	1758656	1206	170
0	1760260	1207	135
0	1761562	1208	113
0	1763185	1209	152
0	1764976	1210	167
0	1766400	1211	149
0	1767745	1212	134
0	1769428	1213	164
0	1770682	1214	135
0	1772140	1215	127
0	1773443	1216	134
0	1774914	1217	130
0	1776500	1218	139
0	1778189	1219	148
0	1779688	1220	145
0	1780815	1221	106
0	1782316	1222	158
0	1783308	1223	99
0	1784981	1224	162
0	1786678	1225	164
0	1787794	1226	87
0	1789389	1227	150
0	1790685	1228	121
0	1792106	1229	146
0	1793503	1230	141
0	1794746	1231	118
0	1796119	1232	144
0	1797032	1233	80
0	1798384	1234	125
0	1799716	1235	117
0	1800941	1236	112
0	1802576	1237	156
0	1803971	1238	112
0	1805721	1239	171
0	1807143	1240	142
0	1808551	1241	119
0	1809804	1242	126
0	1811304	1243	147
0	1812489	1244	110
0	1813698	1245	100
0	1815077	1246	126
0	1816326	1247	104
0	1817867	1248	142
0	1819257	1249	141
0	1820621	1250	140
0	1822067	1251	141
0	1823588	1252	158
0	1825232	1253	167
0	1826782	1254	149
0	1828128	1255	125
0	1829649	1256	154
0	1831039	1257	119
0	1832803	1258	179
0	1834212	1259	122
0	1835618	1260	140
0	1836987	1261	122
0	1838407	1262	153
0	1840084	1263	170
0	1841398	1264	117
0	1842847	1265	148
0	1844122	1266	116
0	1845306	1267	95
0	1846625	1268	122
0	1848149	1269	137
0	1849810	1270	175
0	1851212	1271	139
0	1852743	1272	154
0	1854323	1273	157
0	1856128	1274	184
0	1857879	1275	176
0	1859479	1276	169
0	1860744	1277	108
0	1862184	1278	151
0	1863458	1279	111
0	1864751	1280	115
0	1866169	1281	141
0	1867586	1282	126
0	1868806	1283	133
0	1870486	1284	163
0	1871926	1285	129
0	1873424	1286	145
0	1874950	1287	131
0	1876636	1288	163
0	1878164	1289	133
0	1879500	1290	122
0	1881031	1291	160
0	1882526	1292	148
0	1883772	1293	121
0	1885248	1294	149
0	1886382	1295	111
0	1887777	1296	138
0	1889339	1297	137
0	1890913	1298	151
0	1892481	1299	147
0	1893996	1300	139
0	1895583	1301	168
0	1897093	1302	139
0	1898824	1303	174
0	1900523	1304	166
0	1902251	1305	165
0	1903537	1306	123
0	1904829	1307	113
0	1906403	1308	145
0	1907641	1309	133
0	1908974	1310	125
0	1910312	1311	133
0	1911733	1312	144
0	1913236	1313	134
0	1914603	1314	126
0	1915861	1315	111
0	1917165	1316	117
0	1918302	1317	122
0	1919731	1318	124
0	1921055	1319	115
0	1922418	1320	131
0	1923528	1321	99
0	1924723	1322	120
0	1926167	1323	129
0	1927507	1324	121
0	1929148	1325	168
0	1930210	1326	107
0	1931549	1327	130
0	1932922	1328	124
0	1934136	1329	115
0	1935570	1330	156
0	1936764	1331	115
0	1938273	1332	154
0	1939555	1333	123
0	1940976	1334	150
0	1942490	1335	143
0	1943898	1336	137
0	1945299	1337	148
0	1946630	1338	132
0	1948053	1339	154
0	1949479	1340	130
0	1951147	1341	183
0	1952460	1342	114
0	1953720	1343	125
0	1955302	1344	139
0	1956595	1345	132
0	1958080	1346	136
0	1959755	1347	162
0	1961172	1348	128
0	1962752	1349	137
0	1964237	1350	137
0	1965563	1351	133
0	1967032	1352	136
0	1968367	1353	122
0	1970099	1354	185
0	1971451	1355	123
0	1973211	1356	159
0	1974514	1357	138
0	1976123	1358	166
0	1977688	1359	138
0	1979321	1360	135
0	1980788	1361	136
0	1982289	1362	150
0	1983615	1363	131
0	1984729	1364	113
0	1986186	1365	144
0	1987677	1366	144
0	1989102	1367	130
0	1990882	1368	163
0	1992447	1369	144
0	1994077	1370	168
0	1995689	1371	165
0	1997286	1372	150
0	1998753	1373	138
0	1999987	1374	107
0	2001274	1375	122
0	2002855	1376	164
0	2004054	1377	118
0	2005528	1378	163
0	2006868	1379	125
0	2008241	1380	119
0	2009412	1381	82
0	2011178	1382	179
0	2012722	1383	155
0	2013993	1384	128
0	2015492	1385	144
0	2017029	1386	154
0	2018548	1387	158
0	2019779	1388	104
0	2021441	1389	161
0	2022387	1390	86
0	2023961	1391	151
0	2025368	1392	132
0	2026920	1393	153
0	2028488	1394	143
0	2029851	1395	118
0	2031641	1396	179
0	2033266	1397	164
0	2034834	1398	147
0	2036165	1399	138
0	2038012	1400	191
0	2039389	1401	112
0	2040758	1402	128
0	2042105	1403	142
0	2043607	1404	159
0	2044596	1405	92
0	2046125	1406	150
0	2047348	1407	108
0	2048712	1408	125
0	2050362	1409	171
0	2051997	1410	161
0	2053641	1411	181
0	2054683	1412	89
0	2056048	1413	140
0	2057378	1414	137
0	2058577	1415	118
0	2059850	1416	112
0	2061319	1417	138
0	2062693	1418	129
0	2064461	1419	181
0	2065722	1420	123
0	2067226	1421	149
0	2068882	1422	173
0	2070241	1423	134
0	2071516	1424	126
0	2072617	1425	104
0	2074091	1426	127
0	2076014	1427	190
0	2077494	1428	145
0	2078920	1429	147
0	2080423	1430	147
0	2081848	1431	154
0	2083234	1432	133
0	2084692	1433	135
0	2086293	1434	158
0	2087546	1435	120
0	2089164	1436	151
0	2090690	1437	147
0	2092030	1438	117
0	2093366	1439	137
0	2094775	1440	125
0	2096314	1441	176
0	2097500	1442	99
0	2098950	1443	139
0	2100278	1444	129
0	2101638	1445	145
0	2102869	1446	124
0	2104305	1447	149
0	2106109	1448	189
0	2107709	1449	159
0	2109047	1450	138
0	2110205	1451	99
0	2111786	1452	158
0	2113581	1453	204
0	2114948	1454	118
0	2116518	1455	155
0	2117779	1456	120
0	2119140	1457	130
0	2120596	1458	147
0	2122086	1459	155
0	2123711	1460	135
0	2125311	1461	141
0	2126589	1462	123
0	2127884	1463	116
0	2129133	1464	118
0	2130544	1465	126
0	2132231	1466	162
0	2133872	1467	160
0	2135045	1468	118
0	2136586	1469	144
0	2138168	1470	154
0	2139721	1471	144
0	2141332	1472	150
0	2142423	1473	106
0	2143731	1474	115
0	2145173	1475	119
0	2146515	1476	127
0	2147862	1477	112
0	2149471	1478	156
0	2150866	1479	150
0	2152456	1480	166
0	2153642	1481	115
0	2155275	1482	162
0	2156589	1483	107
0	2157874	1484	144
0	2159486	1485	167
0	2160699	1486	114
0	2161930	1487	112
0	2163357	1488	144
0	2164922	1489	148
0	2166445	1490	141
0	2167735	1491	121
0	2168966	1492	116
0	2170555	1493	152
0	2171993	1494	143
0	2173520	1495	152
0	2174855	1496	128
0	2176211	1497	121
0	2177686	1498	148
0	2179248	1499	157
0	2180647	1500	121
0	2181683	1501	89
0	2183237	1502	159
0	2184900	1503	162
0	2186887	1504	190
0	2188438	1505	176
0	2189924	1506	129
0	2191285	1507	120
0	2192944	1508	158
0	2194157	1509	126
0	2195805	1510	162
0	2197063	1511	119
0	2198340	1512	104
0	2199505	1513	108
0	2201186	1514	168
0	2202948	1515	147
0	2204230	1516	123
0	2205650	1517	131
0	2207544	1518	171
0	2208831	1519	132
0	2210586	1520	165
0	2211845	1521	126
0	2213167	1522	131
0	2214846	1523	150
0	2216359	1524	146
0	2217710	1525	132
0	2218952	1526	123
0	2220222	1527	127
0	2221585	1528	138
0	2222584	1529	90
0	2223928	1530	132
0	2225195	1531	130
0	2226558	1532	130
0	2228069	1533	128
0	2229478	1534	118
0	2231038	1535	145
0	2232283	1536	118
0	2233725	1537	127
0	2235220	1538	150
0	2236713	1539	152
0	2238131	1540	132
0	2239507	1541	121
0	2241260	1542	172
0	2242596	1543	131
0	2243706	1544	111
0	2245014	1545	127
0	2246295	1546	132
0	2247673	1547	131
0	2249052	1548	134
0	2250355	1549	126
0	2251777	1550	146
0	2253162	1551	120
0	2254625	1552	126
0	2256081	1553	149
0	2257245	1554	125
0	2258597	1555	111
0	2259809	1556	103
0	2261377	1557	165
0	2262850	1558	140
0	2264459	1559	166
0	2265707	1560	114
0	2266811	1561	117
0	2267938	1562	114
0	2269562	1563	149
0	2271017	1564	154
0	2272422	1565	120
0	2273937	1566	160
0	2275371	1567	137
0	2277145	1568	143
0	2278699	1569	135
0	2280278	1570	161
0	2281772	1571	139
0	2283080	1572	133
0	2284614	1573	151
0	2286144	1574	167
0	2287812	1575	159
0	2289289	1576	140
0	2290972	1577	146
0	2292200	1578	95
0	2293690	1579	153
0	2295480	1580	198
0	2297092	1581	155
0	2298368	1582	129
0	2299824	1583	135
0	2301709	1584	196
0	2303240	1585	142
0	2304577	1586	110
0	2306209	1587	147
0	2307445	1588	115
0	2308788	1589	142
0	2310071	1590	131
0	2311410	1591	128
0	2312886	1592	135
0	2314436	1593	141
0	2315908	1594	153
0	2317674	1595	151
0	2319157	1596	140
0	2320969	1597	169
0	2322652	1598	164
0	2323992	1599	113
0	2325316	1600	116
0	2326712	1601	121
0	2328044	1602	117
0	2329511	1603	144
0	2330909	1604	129
0	2332437	1605	141
0	2333969	1606	163
0	2335417	1607	139
0	2336750	1608	142
0	2338320	1609	167
0	2339856	1610	162
0	2340957	1611	100
0	2342443	1612	153
0	2343833	1613	133
0	2345334	1614	156