version 3
run SimulationTime-292-20240108-13:22:50-1924
attr configname SimulationTime
attr datetime 20240108-13:22:50
attr datetimef 20240108-132250
attr experiment SimulationTime
attr inifile omnetpp.ini
attr iterationvars ""
attr iterationvarsd ""
attr iterationvarsf ""
attr measurement ""
attr network System
attr processid 1924
attr repetition 292
attr replication #292
attr resultdir results
attr runnumber 292
attr seedset 292
config **.cpu.rate 1000
config **.hd.rateProcessing 250
config **.webServer.web_server_rate 100
config **.p1 0.35
config **.p2 0.40
config network System
config num-rngs 4
config **.cpu.rng-0 0
config **.cpu.rng-1 1
config **.hd.rng-0 2
config **.webServer.rng-0 3
config repeat 500
config seed-set 292
config sim-time-limit 10000s
config **.client.numClients 40

vector 0 System.server.cpu requestCounterStat:vector ETV
attr recordingmode vector
attr source requestCounter
vector 1 System.server.hd utilizationHdStat:vector ETV
attr recordingmode vector
attr source utilizationHd
vector 2 System.server.cpu utilizationCpuStat:vector ETV
attr recordingmode vector
attr source utilizationCpu
vector 3 System.webServer utilizationWsStat:vector ETV
attr recordingmode vector
attr source utilizationWs
0	1936	1	181
0	3614	2	163
0	5276	3	151
0	6929	4	164
0	8451	5	151
0	9768	6	128
0	11312	7	145
0	12954	8	153
0	14391	9	134
0	16207	10	202
0	17536	11	124
0	18780	12	109
0	20204	13	145
0	21630	14	129
0	22806	15	117
0	24344	16	159
0	25943	17	150
0	27147	18	103
0	28501	19	121
0	30076	20	133
0	31450	21	111
0	32808	22	127
0	34240	23	141
0	35806	24	147
0	37344	25	141
0	38865	26	130
0	40305	27	131
0	41839	28	145
0	43241	29	143
0	44480	30	117
0	46259	31	178
0	47735	32	125
0	49116	33	144
0	50536	34	145
0	52108	35	153
0	53555	36	130
0	54920	37	130
0	56625	38	170
0	58347	39	187
0	59727	40	112
0	61139	41	133
0	62470	42	122
0	64203	43	176
0	65642	44	138
0	66845	45	102
0	68152	46	122
0	69662	47	143
0	70878	48	127
0	72335	49	106
0	73793	50	134
0	75043	51	111
0	76496	52	128
0	77906	53	135
0	79445	54	136
0	80636	55	112
0	82063	56	128
0	83550	57	148
0	84991	58	142
0	86454	59	144
0	88098	60	162
0	89514	61	147
0	90859	62	142
0	92377	63	157
0	93748	64	130
0	95157	65	128
0	96334	66	106
0	97712	67	133
0	99553	68	172
0	100964	69	122
0	102302	70	134
0	103700	71	123
0	105136	72	141
0	106381	73	112
0	107937	74	151
0	109426	75	138
0	111162	76	189
0	112962	77	181
0	114369	78	140
0	116011	79	147
0	117624	80	165
0	119021	81	140
0	120312	82	118
0	121819	83	142
0	123420	84	156
0	125266	85	191
0	126651	86	140
0	128358	87	166
0	129778	88	141
0	131388	89	151
0	133259	90	177
0	134805	91	151
0	136308	92	158
0	137711	93	138
0	138750	94	90
0	139913	95	94
0	141502	96	154
0	142834	97	131
0	144008	98	119
0	145112	99	109
0	146575	100	139
0	148103	101	145
0	149627	102	147
0	151081	103	147
0	152389	104	133
0	154213	105	185
0	155627	106	129
0	157311	107	135
0	158858	108	150
0	160297	109	140
0	161703	110	122
0	163520	111	196
0	164617	112	90
0	166546	113	184
0	167922	114	127
0	169054	115	111
0	170713	116	150
0	172228	117	150
0	173592	118	131
0	175235	119	166
0	176663	120	124
0	178136	121	134
0	179910	122	167
0	181605	123	166
0	182928	124	122
0	184361	125	134
0	186062	126	154
0	187390	127	117
0	188876	128	159
0	190414	129	147
0	191783	130	131
0	193272	131	148
0	194801	132	132
0	196280	133	114
0	197597	134	128
0	198836	135	118
0	200243	136	134
0	201596	137	120
0	203138	138	139
0	204854	139	161
0	206184	140	136
0	207397	141	112
0	208692	142	132
0	210144	143	143
0	211682	144	155
0	213202	145	135
0	214714	146	151
0	216278	147	143
0	217706	148	129
0	219413	149	174
0	220941	150	150
0	222393	151	149
0	223816	152	120
0	225000	153	105
0	226446	154	143
0	227815	155	128
0	229248	156	128
0	230997	157	162
0	232245	158	117
0	233886	159	182
0	235212	160	128
0	236704	161	139
0	238252	162	157
0	239585	163	144
0	241131	164	151
0	242428	165	110
0	243903	166	132
0	245351	167	141
0	246933	168	153
0	248169	169	115
0	249643	170	152
0	250953	171	129
0	252364	172	134
0	253499	173	106
0	254914	174	118
0	256682	175	165
0	258188	176	159
0	259975	177	170
0	261338	178	118
0	262775	179	140
0	264072	180	107
0	265622	181	133
0	267075	182	152
0	268626	183	156
0	270478	184	163
0	272041	185	152
0	273628	186	156
0	275414	187	171
0	277015	188	150
0	278501	189	145
0	279680	190	111
0	281299	191	160
0	282893	192	149
0	284393	193	137
0	285984	194	166
0	287399	195	118
0	288939	196	159
0	290440	197	142
0	291713	198	114
0	293011	199	139
0	294903	200	184
0	296397	201	147
0	297659	202	129
0	299417	203	169
0	300914	204	158
0	302507	205	144
0	304235	206	169
0	305640	207	144
0	307240	208	145
0	308699	209	124
0	310351	210	170
0	312012	211	148
0	313312	212	113
0	314970	213	157
0	316706	214	165
0	317977	215	132
0	319289	216	125
0	320814	217	136
0	322026	218	115
0	323784	219	165
0	324812	220	88
0	326054	221	111
0	327468	222	135
0	328980	223	141
0	330294	224	123
0	331978	225	153
0	333385	226	134
0	334834	227	142
0	336300	228	145
0	337896	229	153
0	339350	230	130
0	340683	231	124
0	342156	232	138
0	343528	233	121
0	345279	234	184
0	346597	235	131
0	348123	236	141
0	349842	237	172
0	351433	238	150
0	353312	239	186
0	354606	240	100
0	355871	241	116
0	357516	242	158
0	359221	243	140
0	360798	244	148
0	362313	245	130
0	363623	246	119
0	365246	247	162
0	366724	248	129
0	368306	249	133
0	369982	250	156
0	371451	251	152
0	372539	252	105
0	373965	253	141
0	375354	254	128
0	376661	255	132
0	377867	256	123
0	379232	257	138
0	380760	258	165
0	382091	259	118
0	383507	260	134
0	384636	261	108
0	385953	262	148
0	387430	263	150
0	389026	264	149
0	390402	265	129
0	391546	266	113
0	393531	267	206
0	395386	268	202
0	396767	269	120
0	398424	270	163
0	399712	271	139
0	401246	272	153
0	402833	273	154
0	404447	274	163
0	405826	275	126
0	407162	276	133
0	408708	277	159
0	410178	278	147
0	411316	279	105
0	413050	280	172
0	414578	281	141
0	416093	282	168
0	417269	283	97
0	418756	284	146
0	420106	285	137
0	421454	286	131
0	423097	287	156
0	424915	288	163
0	426451	289	141
0	427703	290	122
0	429446	291	176
0	431063	292	136
0	432215	293	125
0	433708	294	116
0	435067	295	142
0	436711	296	165
0	438270	297	168
0	439713	298	130
0	440932	299	98
0	442420	300	126
0	443835	301	150
0	445368	302	136
0	446872	303	121
0	448219	304	116
0	449806	305	146
0	451226	306	131
0	452489	307	106
0	453895	308	145
0	455303	309	117
0	456675	310	144
0	458239	311	135
0	459557	312	127
0	461014	313	138
0	462255	314	110
0	463973	315	179
0	465585	316	169
0	467048	317	144
0	468326	318	117
0	469918	319	169
0	471341	320	135
0	473158	321	194
0	474402	322	125
0	475976	323	163
0	477159	324	96
0	478582	325	144
0	480250	326	169
0	481486	327	109
0	483093	328	134
0	484728	329	150
0	485990	330	106
0	487572	331	153
0	489235	332	166
0	490898	333	156
0	492536	334	159
0	494623	335	222
0	496112	336	152
0	497897	337	180
0	499232	338	130
0	500589	339	116
0	502251	340	178
0	503793	341	151
0	505029	342	117
0	506721	343	159
0	507750	344	100
0	509159	345	134
0	510419	346	109
0	511749	347	111
0	513393	348	155
0	514567	349	113
0	516020	350	137
0	517630	351	157
0	519192	352	163
0	520565	353	122
0	522128	354	164
0	523676	355	133
0	525204	356	157
0	526947	357	172
0	528239	358	119
0	529990	359	190
0	531733	360	159
0	533050	361	122
0	534274	362	105
0	535573	363	120
0	537137	364	139
0	538769	365	165
0	540310	366	156
0	541910	367	147
0	543334	368	135
0	544819	369	160
0	546351	370	148
0	547894	371	146
0	549635	372	188
0	551067	373	145
0	552473	374	131
0	554269	375	181
0	555540	376	118
0	556792	377	117
0	558119	378	130
0	559478	379	132
0	561028	380	154
0	562538	381	153
0	563911	382	112
0	565354	383	134
0	566523	384	98
0	567742	385	116
0	569299	386	164
0	570738	387	142
0	572081	388	114
0	573563	389	143
0	575090	390	149
0	576467	391	120
0	577728	392	112
0	578890	393	103
0	580215	394	124
0	581632	395	136
0	583310	396	181
0	584996	397	177
0	586549	398	138
0	587982	399	114
0	589714	400	168
0	591143	401	128
0	592156	402	90
0	593487	403	126
0	594740	404	118
0	596573	405	174
0	598102	406	154
0	599589	407	150
0	601045	408	141
0	602397	409	133
0	603596	410	97
0	604783	411	110
0	606519	412	183
0	607699	413	107
0	609074	414	138
0	610399	415	122
0	612180	416	186
0	613590	417	149
0	614906	418	119
0	616231	419	136
0	617628	420	145
0	618953	421	118
0	620476	422	146
0	622191	423	178
0	623966	424	158
0	625292	425	121
0	626894	426	157
0	628488	427	143
0	630239	428	168
0	631517	429	123
0	632643	430	104
0	633764	431	108
0	635240	432	133
0	636683	433	138
0	638035	434	133
0	639122	435	84
0	640449	436	140
0	641941	437	145
0	643441	438	141
0	644776	439	118
0	646458	440	154
0	647937	441	142
0	649174	442	136
0	650809	443	148
0	652453	444	167
0	653942	445	148
0	655619	446	150
0	656993	447	135
0	658512	448	144
0	659696	449	109
0	661368	450	156
0	662771	451	130
0	664298	452	146
0	665770	453	129
0	667376	454	161
0	669118	455	175
0	670712	456	177
0	672292	457	145
0	673758	458	123
0	675203	459	120
0	676875	460	162
0	678443	461	155
0	680000	462	144
0	681759	463	194
0	683513	464	167
0	685244	465	162
0	686951	466	166
0	688118	467	106
0	689760	468	151
0	691091	469	118
0	692535	470	130
0	694362	471	184
0	695603	472	124
0	697116	473	152
0	698473	474	108
0	700029	475	155
0	701853	476	167
0	703523	477	155
0	704969	478	141
0	706617	479	167
0	707844	480	103
0	709434	481	169
0	710973	482	132
0	712304	483	136
0	713866	484	167
0	715571	485	148
0	717059	486	145
0	718599	487	145
0	720401	488	167
0	721883	489	145
0	722940	490	101
0	724321	491	132
0	725938	492	168
0	727128	493	113
0	728796	494	155
0	730093	495	128
0	731564	496	138
0	733097	497	162
0	734287	498	127
0	735795	499	143
0	737077	500	112
0	738628	501	150
0	740173	502	158
0	741699	503	145
0	742827	504	99
0	744266	505	150
0	745753	506	150
0	747433	507	149
0	749234	508	180
0	750703	509	140
0	752439	510	158
0	753729	511	139
0	755335	512	173
0	756669	513	129
0	758122	514	146
0	759524	515	127
0	761074	516	151
0	762524	517	135
0	763922	518	139
0	765283	519	126
0	766857	520	138
0	768804	521	200
0	770224	522	121
0	771549	523	128
0	773224	524	162
0	774504	525	103
0	775662	526	101
0	776936	527	127
0	778334	528	141
0	779534	529	91
0	780894	530	130
0	782349	531	144
0	783832	532	140
0	785241	533	124
0	786860	534	178
0	788307	535	120
0	789764	536	156
0	791064	537	109
0	792516	538	141
0	794034	539	143
0	795240	540	102
0	796316	541	109
0	797991	542	176
0	799295	543	131
0	800811	544	131
0	802040	545	112
0	803560	546	143
0	805329	547	176
0	806985	548	147
0	808330	549	114
0	809717	550	125
0	811140	551	150
0	812696	552	165
0	814158	553	141
0	815291	554	118
0	816881	555	151
0	818547	556	177
0	819898	557	120
0	821219	558	128
0	822467	559	117
0	823724	560	123
0	825061	561	124
0	826469	562	131
0	828107	563	159
0	829475	564	119
0	831252	565	166
0	832540	566	113
0	833914	567	125
0	835328	568	135
0	836674	569	131
0	838082	570	146
0	839642	571	167
0	841125	572	130
0	842575	573	135
0	843831	574	115
0	845325	575	129
0	846980	576	150
0	848790	577	171
0	850281	578	132
0	851576	579	128
0	853265	580	165
0	854735	581	145
0	856483	582	169
0	857975	583	137
0	859426	584	136
0	860912	585	137
0	862708	586	149
0	864583	587	192
0	865822	588	118
0	867178	589	131
0	868500	590	134
0	870070	591	147
0	871407	592	118
0	872638	593	112
0	874251	594	142
0	875680	595	150
0	877207	596	148
0	878957	597	157
0	880672	598	176
0	882349	599	162
0	883591	600	118
0	885100	601	136
0	887023	602	182
0	888531	603	137
0	890390	604	188
0	891741	605	124
0	893319	606	151
0	894773	607	147
0	896101	608	127
0	897634	609	150
0	899188	610	156
0	900861	611	178
0	902286	612	138
0	903661	613	138
0	905308	614	166
0	906766	615	145
0	908323	616	144
0	909622	617	106
0	911141	618	134
0	912612	619	126
0	914019	620	129
0	915772	621	188
0	917374	622	151
0	918817	623	146
0	920371	624	139
0	921672	625	122
0	922788	626	99
0	924356	627	151
0	926197	628	170
0	928031	629	179
0	929657	630	150
0	930990	631	132
0	932800	632	185
0	934412	633	159
0	935812	634	117
0	937057	635	100
0	938463	636	123
0	939669	637	115
0	941292	638	158
0	942770	639	163
0	944050	640	104
0	945578	641	141
0	946820	642	119
0	948503	643	144
0	949674	644	120
0	950907	645	114
0	952349	646	145
0	953688	647	130
0	955331	648	160
0	956951	649	169
0	958353	650	128
0	959808	651	148
0	960985	652	102
0	962245	653	105
0	963760	654	146
0	965169	655	138
0	966505	656	111
0	968372	657	178
0	969719	658	114
0	971232	659	150
0	972914	660	172
0	974117	661	112
0	975403	662	125
0	976930	663	134
0	978538	664	153
0	979874	665	117
0	981571	666	176
0	983483	667	199
0	985408	668	178
0	986801	669	132
0	988059	670	114
0	989391	671	121
0	990696	672	120
0	992075	673	134
0	993579	674	153
0	994962	675	138
0	996580	676	159
0	997835	677	114
0	999267	678	155
0	1000515	679	117
0	1001933	680	140
0	1003374	681	150
0	1004517	682	114
0	1006002	683	144
0	1007574	684	135
0	1009056	685	163
0	1010347	686	114
0	1011821	687	131
0	1013558	688	158
0	1014864	689	119
0	1016429	690	149
0	1017876	691	134
0	1018983	692	98
0	1020518	693	154
0	1021762	694	107
0	1023278	695	139
0	1024917	696	166
0	1026219	697	107
0	1027479	698	127
0	1028824	699	124
0	1030349	700	151
0	1031909	701	163
0	1033311	702	131
0	1035017	703	151
0	1036520	704	138
0	1038002	705	155
0	1039244	706	115
0	1040728	707	117
0	1042501	708	176
0	1044110	709	174
0	1045787	710	157
0	1047157	711	147
0	1048531	712	135
0	1050131	713	137
0	1051741	714	167
0	1053101	715	129
0	1054646	716	164
0	1055994	717	131
0	1057715	718	154
0	1059155	719	141
0	1060471	720	130
0	1061891	721	139
0	1063176	722	120
0	1064473	723	112
0	1065693	724	113
0	1066843	725	105
0	1068410	726	142
0	1069913	727	152
0	1071179	728	127
0	1072327	729	101
0	1073831	730	148
0	1075599	731	165
0	1077296	732	186
0	1078899	733	154
0	1080283	734	123
0	1081801	735	151
0	1083534	736	176
0	1084921	737	122
0	1086310	738	122
0	1087604	739	127
0	1089295	740	175
0	1090460	741	104
0	1091720	742	109
0	1093141	743	152
0	1094803	744	159
0	1096227	745	153
0	1097463	746	107
0	1098575	747	97
0	1099923	748	127
0	1101712	749	184
0	1102893	750	99
0	1104445	751	143
0	1105871	752	149
0	1107383	753	139
0	1108711	754	123
0	1109849	755	103
0	1111206	756	124
0	1112799	757	140
0	1114519	758	185
0	1115731	759	121
0	1117210	760	149
0	1118429	761	122
0	1119748	762	118
0	1121271	763	144
0	1122348	764	102
0	1123959	765	144
0	1125686	766	158
0	1127233	767	154
0	1128783	768	139
0	1130005	769	137
0	1131485	770	132
0	1132984	771	138
0	1134648	772	149
0	1136141	773	128
0	1137847	774	167
0	1139244	775	132
0	1140585	776	122
0	1142040	777	160
0	1143442	778	141
0	1144699	779	110
0	1146300	780	167
0	1147474	781	107
0	1148575	782	92
0	1150182	783	180
0	1151506	784	125
0	1152948	785	157
0	1154412	786	145
0	1155726	787	133
0	1157091	788	118
0	1158391	789	117
0	1160050	790	179
0	1161564	791	161
0	1162640	792	105
0	1164119	793	142
0	1165743	794	159
0	1167007	795	115
0	1168587	796	145
0	1170116	797	160
0	1171722	798	177
0	1173140	799	123
0	1174577	800	119
0	1176039	801	159
0	1177597	802	159
0	1179068	803	150
0	1180524	804	127
0	1182116	805	165
0	1183955	806	192
0	1185333	807	125
0	1187043	808	175
0	1188214	809	114
0	1189608	810	142
0	1191139	811	154
0	1192208	812	90
0	1193567	813	128
0	1195065	814	147
0	1196932	815	184
0	1198265	816	126
0	1199627	817	119
0	1200954	818	140
0	1202800	819	185
0	1204212	820	140
0	1205383	821	118
0	1206763	822	145
0	1208288	823	160
0	1209571	824	120
0	1211235	825	137
0	1212849	826	165
0	1214287	827	139
0	1215476	828	108
0	1216979	829	162
0	1218700	830	169
0	1220093	831	142
0	1221202	832	112
0	1222834	833	155
0	1224014	834	115
0	1225636	835	145
0	1227496	836	185
0	1228809	837	102
0	1230032	838	118
0	1231173	839	108
0	1232742	840	155
0	1234124	841	127
0	1235792	842	163
0	1237483	843	152
0	1238762	844	122
0	1239985	845	122
0	1241523	846	151
0	1242877	847	127
0	1244171	848	123
0	1245849	849	163
0	1247404	850	151
0	1248956	851	115
0	1250449	852	112
0	1251992	853	146
0	1253687	854	170
0	1255246	855	158
0	1256611	856	144
0	1257786	857	110
0	1259095	858	126
0	1260757	859	169
0	1261920	860	101
0	1263458	861	171
0	1264980	862	139
0	1266323	863	120
0	1267519	864	99
0	1268861	865	127
0	1270133	866	131
0	1271658	867	142
0	1273296	868	169
0	1274738	869	143
0	1276477	870	155
0	1277803	871	123
0	1279048	872	114
0	1280104	873	107
0	1281343	874	122
0	1282464	875	92
0	1283783	876	122
0	1285233	877	137
0	1286432	878	108
0	1287783	879	120
0	1289212	880	113
0	1290522	881	123
0	1292048	882	155
0	1293289	883	114
0	1294498	884	118
0	1295636	885	109
0	1297198	886	143
0	1299005	887	184
0	1300601	888	147
0	1302355	889	165
0	1303753	890	140
0	1305245	891	145
0	1306703	892	129
0	1308067	893	131
0	1309689	894	161
0	1310994	895	128
0	1312692	896	183
0	1314243	897	154
0	1315818	898	148
0	1317458	899	167
0	1318629	900	109
0	1319761	901	105
0	1320995	902	133
0	1322418	903	140
0	1323779	904	118
0	1325117	905	137
0	1326555	906	131
0	1327981	907	135
0	1329612	908	162
0	1330957	909	140
0	1332631	910	146
0	1333931	911	125
0	1335461	912	147
0	1336944	913	158
0	1338435	914	138
0	1340060	915	160
0	1341417	916	128
0	1342779	917	155
0	1343982	918	126
0	1345716	919	163
0	1347100	920	128
0	1348383	921	126
0	1349595	922	113
0	1351118	923	146
0	1352353	924	122
0	1353419	925	101
0	1355027	926	167
0	1356473	927	139
0	1357743	928	111
0	1359057	929	109
0	1360153	930	102
0	1361611	931	145
0	1363167	932	131
0	1364683	933	137
0	1366262	934	150
0	1367320	935	95
0	1368721	936	130
0	1370278	937	158
0	1371944	938	165
0	1373312	939	119
0	1374929	940	151
0	1376248	941	122
0	1377783	942	150
0	1379265	943	135
0	1380953	944	165
0	1382729	945	165
0	1383982	946	132
0	1385424	947	151
0	1386743	948	118
0	1388312	949	140
0	1389803	950	153
0	1391445	951	153
0	1392892	952	150
0	1394355	953	134
0	1395660	954	130
0	1397339	955	180
0	1398730	956	176
0	1399981	957	120
0	1401273	958	117
0	1402547	959	117
0	1404251	960	162
0	1405878	961	152
0	1406924	962	99
0	1408099	963	110
0	1409388	964	120
0	1411106	965	175
0	1412402	966	117
0	1413867	967	132
0	1415288	968	136
0	1416436	969	121
0	1417687	970	109
0	1419066	971	122
0	1420347	972	112
0	1421733	973	133
0	1423119	974	131
0	1424740	975	162
0	1426153	976	128
0	1427854	977	156
0	1429114	978	111
0	1430418	979	133
0	1432034	980	144
0	1433810	981	167
0	1435368	982	139
0	1436773	983	136
0	1438116	984	126
0	1439451	985	118
0	1440886	986	136
0	1442185	987	104
0	1444003	988	191
0	1445477	989	135
0	1446874	990	143
0	1448136	991	139
0	1449579	992	142
0	1451216	993	176
0	1452508	994	127
0	1453887	995	146
0	1455133	996	121
0	1456742	997	160
0	1458233	998	136
0	1459744	999	136
0	1461271	1000	157
0	1462890	1001	166
0	1464418	1002	131
0	1465817	1003	144
0	1467256	1004	126
0	1468781	1005	136
0	1470173	1006	129
0	1471623	1007	139
0	1472538	1008	90
0	1474122	1009	149
0	1475788	1010	146
0	1477456	1011	161
0	1478936	1012	153
0	1480334	1013	111
0	1481654	1014	127
0	1483037	1015	142
0	1484729	1016	159
0	1486260	1017	142
0	1487618	1018	131
0	1489479	1019	194
0	1490839	1020	116
0	1492236	1021	138
0	1493809	1022	164
0	1495116	1023	116
0	1496809	1024	154
0	1498185	1025	125
0	1499673	1026	145
0	1501312	1027	142
0	1502659	1028	112
0	1503903	1029	117
0	1505585	1030	180
0	1507370	1031	172
0	1509052	1032	171
0	1510399	1033	140
0	1511733	1034	123
0	1513403	1035	151
0	1515075	1036	131
0	1516345	1037	113
0	1517884	1038	152
0	1519342	1039	123
0	1520795	1040	141
0	1522255	1041	143
0	1523709	1042	125
0	1525103	1043	123
0	1526503	1044	139
0	1528080	1045	156
0	1529623	1046	158
0	1530822	1047	102
0	1532241	1048	130
0	1533756	1049	150
0	1535484	1050	170
0	1537194	1051	173
0	1538722	1052	141
0	1540375	1053	164
0	1541981	1054	153
0	1543762	1055	172
0	1545301	1056	160
0	1547020	1057	162
0	1548503	1058	160
0	1550303	1059	185
0	1552157	1060	190
0	1553761	1061	155
0	1554856	1062	94
0	1556016	1063	113
0	1557118	1064	105
0	1558452	1065	141
0	1559670	1066	105
0	1561140	1067	145
0	1562842	1068	159
0	1563982	1069	85
0	1565570	1070	172
0	1566982	1071	133
0	1568397	1072	154
0	1569945	1073	153
0	1571241	1074	129
0	1572653	1075	145
0	1574188	1076	132
0	1575428	1077	127
0	1576861	1078	156
0	1578205	1079	117
0	1579703	1080	146
0	1580841	1081	95
0	1581904	1082	96
0	1583386	1083	151
0	1584630	1084	115
0	1586043	1085	126
0	1587636	1086	160
0	1588942	1087	145
0	1590478	1088	143
0	1591883	1089	134
0	1593488	1090	147
0	1594778	1091	117
0	1596451	1092	158
0	1597775	1093	99
0	1599204	1094	132
0	1601030	1095	181
0	1602276	1096	107
0	1603709	1097	140
0	1604929	1098	113
0	1606474	1099	158
0	1607930	1100	142
0	1609231	1101	118
0	1610684	1102	154
0	1612401	1103	164
0	1613766	1104	136
0	1615123	1105	128
0	1616716	1106	168
0	1618565	1107	176
0	1620203	1108	155
0	1621632	1109	136
0	1623166	1110	154
0	1624913	1111	158
0	1626599	1112	161
0	1628088	1113	142
0	1629463	1114	108
0	1630771	1115	131
0	1632396	1116	152
0	1633822	1117	141
0	1635425	1118	156
0	1636881	1119	139
0	1638152	1120	127
0	1639665	1121	156
0	1640970	1122	120
0	1642660	1123	165
0	1644457	1124	170
0	1645984	1125	162
0	1647512	1126	153
0	1649421	1127	186
0	1650726	1128	126
0	1652139	1129	132
0	1653563	1130	134
0	1654960	1131	134
0	1656510	1132	155
0	1657658	1133	111
0	1659281	1134	152
0	1660508	1135	110
0	1661704	1136	97
0	1663861	1137	212
0	1665430	1138	184
0	1667063	1139	148
0	1668453	1140	120
0	1669901	1141	139
0	1671410	1142	144
0	1672797	1143	130
0	1674264	1144	126
0	1675910	1145	163
0	1677594	1146	163
0	1679060	1147	133
0	1680493	1148	132
0	1682355	1149	185
0	1684029	1150	164
0	1685382	1151	136
0	1686855	1152	154
0	1688253	1153	159
0	1689789	1154	139
0	1691382	1155	160
0	1693066	1156	171
0	1694395	1157	116
0	1695812	1158	138
0	1697417	1159	160
0	1698315	1160	78
0	1699679	1161	113
0	1701028	1162	118
0	1702462	1163	123
0	1704218	1164	167
0	1706025	1165	174
0	1707599	1166	155
0	1709187	1167	139
0	1710417	1168	101
0	1711657	1169	97
0	1713378	1170	171
0	1714686	1171	113
0	1715839	1172	96
0	1717325	1173	133
0	1718945	1174	159
0	1720414	1175	164
0	1721745	1176	120
0	1723370	1177	156
0	1725206	1178	175
0	1726729	1179	156
0	1727910	1180	109
0	1729088	1181	103
0	1730518	1182	131
0	1731749	1183	110
0	1733255	1184	155
0	1734720	1185	142
0	1736133	1186	128
0	1737773	1187	155
0	1738950	1188	116
0	1740184	1189	117
0	1741512	1190	134
0	1743219	1191	166
0	1744749	1192	159
0	1746311	1193	155
0	1747943	1194	169
0	1749574	1195	146
0	1750879	1196	118
0	1752343	1197	131
0	1753915	1198	157
0	1755211	1199	129
0	1756651	1200	142
0	1757722	1201	88
0	1759053	1202	134
0	1760658	1203	166
0	1761790	1204	93
0	1763169	1205	128
0	1764064	1206	78
0	1765634	1207	159
0	1766851	1208	114
0	1768352	1209	142
0	1769822	1210	136
0	1771360	1211	155
0	1773273	1212	206
0	1774776	1213	146
0	1776444	1214	181
0	1777726	1215	115
0	1779403	1216	182
0	1780661	1217	119
0	1781959	1218	129
0	1783085	1219	103
0	1784394	1220	119
0	1785741	1221	118
0	1787084	1222	126
0	1788747	1223	160
0	1790419	1224	177
0	1791783	1225	135
0	1793068	1226	122
0	1794752	1227	155
0	1796297	1228	160
0	1797717	1229	141
0	1799263	1230	134
0	1800767	1231	157
0	1801958	1232	106
0	1803204	1233	123
0	1804756	1234	153
0	1806187	1235	134
0	1807454	1236	132
0	1808907	1237	122
0	1810337	1238	123
0	1811808	1239	142
0	1813010	1240	110
0	1814437	1241	162
0	1815657	1242	117
0	1817000	1243	124
0	1818438	1244	125
0	1819995	1245	148
0	1821367	1246	125
0	1822671	1247	121
0	1824069	1248	127
0	1825911	1249	199
0	1827852	1250	211
0	1829326	1251	153
0	1830700	1252	145
0	1832166	1253	143
0	1833935	1254	168
0	1834945	1255	91
0	1836273	1256	117
0	1837892	1257	158
0	1839045	1258	124
0	1840583	1259	135
0	1842011	1260	132
0	1843455	1261	149
0	1845073	1262	143
0	1846784	1263	164
0	1848296	1264	169
0	1849707	1265	144
0	1850969	1266	101
0	1852416	1267	116
0	1853556	1268	121
0	1855187	1269	148
0	1856952	1270	181
0	1858520	1271	147
0	1859834	1272	125
0	1861528	1273	177
0	1862716	1274	115
0	1864289	1275	144
0	1865744	1276	140
0	1867256	1277	139
0	1868739	1278	144
0	1869896	1279	106
0	1871300	1280	124
0	1872712	1281	137
0	1874204	1282	161
0	1875674	1283	147
0	1877197	1284	122
0	1878735	1285	133
0	1880004	1286	134
0	1881272	1287	125
0	1882607	1288	142
0	1883884	1289	114
0	1885136	1290	102
0	1886241	1291	102
0	1887955	1292	145
0	1889103	1293	113
0	1890541	1294	147
0	1891894	1295	128
0	1893323	1296	138
0	1894689	1297	145
0	1896087	1298	139
0	1897569	1299	139
0	1898918	1300	119
0	1900601	1301	154
0	1902112	1302	138
0	1903373	1303	108
0	1904689	1304	121
0	1906069	1305	135
0	1907767	1306	177
0	1909122	1307	138
0	1910695	1308	174
0	1912016	1309	130
0	1913271	1310	121
0	1914625	1311	111
0	1916247	1312	153
0	1917777	1313	147
0	1919387	1314	159
0	1920757	1315	133
0	1922044	1316	130
0	1923509	1317	140
0	1924909	1318	153
0	1926476	1319	152
0	1927877	1320	145
0	1929591	1321	177
0	1931379	1322	191
0	1932932	1323	150
0	1934614	1324	145
0	1935941	1325	116
0	1937666	1326	176
0	1939199	1327	154
0	1940975	1328	177
0	1942722	1329	156
0	1944265	1330	147
0	1945896	1331	170
0	1947395	1332	154
0	1948476	1333	96
0	1950277	1334	184
0	1951680	1335	134
0	1953021	1336	136
0	1954251	1337	99
0	1955686	1338	142
0	1957464	1339	179
0	1959134	1340	186
0	1960698	1341	153
0	1961949	1342	118
0	1963332	1343	132
0	1964886	1344	147
0	1966527	1345	162
0	1968279	1346	173
0	1969617	1347	127
0	1970772	1348	112
0	1972400	1349	155
0	1973540	1350	116
0	1974838	1351	145
0	1976398	1352	153
0	1977856	1353	157
0	1979464	1354	167
0	1980837	1355	134
0	1982446	1356	152
0	1984126	1357	145
0	1985810	1358	157
0	1987209	1359	142
0	1988635	1360	150
0	1989836	1361	102
0	1991351	1362	146
0	1992731	1363	123
0	1993857	1364	99
0	1995009	1365	117
0	1996297	1366	105
0	1997903	1367	153
0	1999414	1368	138
0	2000806	1369	137
0	2002237	1370	151
0	2003399	1371	103
0	2005076	1372	174
0	2006627	1373	152
0	2008037	1374	123
0	2009588	1375	134
0	2010872	1376	129
0	2012146	1377	117
0	2013587	1378	126
0	2015056	1379	128
0	2016609	1380	147
0	2017903	1381	139
0	2019376	1382	134
0	2020792	1383	163
0	2022418	1384	151
0	2023886	1385	139
0	2025149	1386	116
0	2026716	1387	144
0	2028307	1388	160
0	2029977	1389	171
0	2031320	1390	121
0	2032701	1391	138
0	2034106	1392	148
0	2035352	1393	109
0	2036619	1394	110
0	2038174	1395	140
0	2039492	1396	137
0	2040809	1397	114
0	2042156	1398	120
0	2043511	1399	114
0	2044666	1400	113
0	2046326	1401	163
0	2048022	1402	167
0	2049097	1403	110
0	2050579	1404	155
0	2052216	1405	150
0	2053520	1406	123
0	2054969	1407	134
0	2056056	1408	88
0	2057459	1409	138
0	2058894	1410	147
0	2060016	1411	101
0	2061085	1412	108
0	2062566	1413	136
0	2064328	1414	187
0	2065718	1415	139
0	2067315	1416	152
0	2069038	1417	162
0	2070723	1418	156
0	2072299	1419	133
0	2073853	1420	150
0	2075287	1421	115
0	2076590	1422	106
0	2077819	1423	124
0	2079281	1424	133
0	2080622	1425	128
0	2081998	1426	141
0	2083787	1427	146
0	2085272	1428	176
0	2086654	1429	119
0	2088073	1430	109
0	2089395	1431	127
0	2090848	1432	144
0	2091946	1433	99
0	2093205	1434	98
0	2094645	1435	147
0	2095834	1436	114
0	2097012	1437	107
0	2098150	1438	111
0	2099424	1439	121
0	2101207	1440	187
0	2102570	1441	118
0	2103867	1442	96
0	2105039	1443	101
0	2106326	1444	116
0	2107791	1445	134
0	2109287	1446	145
0	2110762	1447	130
0	2112060	1448	125
0	2113550	1449	153
0	2114872	1450	108
0	2116223	1451	144
0	2117834	1452	142
0	2119006	1453	109
0	2120328	1454	123
0	2122081	1455	136
0	2123733	1456	173
0	2125262	1457	140
0	2126729	1458	142
0	2128221	1459	141
0	2130111	1460	174
0	2131607	1461	137
0	2133247	1462	137
0	2134834	1463	146
0	2136190	1464	141
0	2137748	1465	155
0	2138911	1466	126
0	2140064	1467	96
0	2141508	1468	141
0	2143058	1469	167
0	2144101	1470	111
0	2145615	1471	143
0	2146985	1472	123
0	2148291	1473	129
0	2150070	1474	170
0	2151476	1475	121
0	2152839	1476	128
0	2154227	1477	119
0	2156045	1478	187
0	2157947	1479	193
0	2159571	1480	162
0	2161356	1481	176
0	2162554	1482	117
0	2164013	1483	122
0	2165465	1484	137
0	2167203	1485	185
0	2168915	1486	179
0	2170539	1487	173
0	2171784	1488	114
0	2173262	1489	147
0	2174694	1490	130
0	2175973	1491	118
0	2177065	1492	97
0	2178316	1493	112
0	2179904	1494	169
0	2181368	1495	143
0	2182419	1496	104
0	2184029	1497	145
0	2185165	1498	109
0	2186785	1499	153
0	2188377	1500	150
0	2189886	1501	154
0	2191230	1502	129
0	2192877	1503	174
0	2194798	1504	196
0	2195997	1505	114
0	2197244	1506	120
0	2198841	1507	142
0	2200291	1508	139
0	2201825	1509	139
0	2203458	1510	159
0	2204895	1511	140
0	2206392	1512	136
0	2207864	1513	149
0	2209171	1514	114
0	2210693	1515	149
0	2212148	1516	120
0	2213206	1517	87
0	2214692	1518	171
0	2216042	1519	131
0	2217318	1520	108
0	2218798	1521	149
0	2220413	1522	170
0	2221658	1523	130
0	2223272	1524	177
0	2224832	1525	139
0	2226716	1526	171
0	2228268	1527	161
0	2230042	1528	191
0	2231634	1529	133
0	2233136	1530	138
0	2234671	1531	160
0	2235673	1532	93
0	2237055	1533	141
0	2238507	1534	143
0	2239714	1535	122
0	2241211	1536	148
0	2242577	1537	127
0	2243993	1538	133
0	2245349	1539	133
0	2247146	1540	159
0	2248600	1541	123
0	2249929	1542	130
0	2251285	1543	127
0	2252714	1544	132
0	2254384	1545	175
0	2255863	1546	142
0	2257184	1547	132
0	2258709	1548	136
0	2260082	1549	124
0	2261261	1550	101
0	2262537	1551	119
0	2264060	1552	152
0	2265431	1553	128
0	2266850	1554	120
0	2268245	1555	134
0	2269963	1556	163
0	2271254	1557	118
0	2272480	1558	119
0	2273765	1559	116
0	2274994	1560	127
0	2276488	1561	139
0	2277714	1562	123
0	2279621	1563	194
0	2281142	1564	140
0	2282413	1565	110
0	2283885	1566	141
0	2285421	1567	147
0	2286832	1568	136
0	2288301	1569	160
0	2289958	1570	163
0	2291311	1571	124
0	2292693	1572	145
0	2294181	1573	155
0	2295789	1574	169
0	2296985	1575	97
0	2298519	1576	139
0	2299755	1577	129
0	2301265	1578	139
0	2302818	1579	154
0	2304059	1580	121
0	2305613	1581	155
0	2306677	1582	85
0	2308130	1583	140
0	2309723	1584	160
0	2310982	1585	130
0	2312544	1586	143
0	2313858	1587	123
0	2315817	1588	218
0	2317170	1589	134
0	2319056	1590	204
0	2320567	1591	126
0	2322421	1592	161
0	2324157	1593	171
0	2325579	1594	127
0	2326692	1595	110
0	2328188	1596	149
0	2329557	1597	142
0	2330924	1598	124
0	2332463	1599	160
0	2334098	1600	161
0	2335514	1601	147
0	2336941	1602	116
0	2338548	1603	154
0	2340100	1604	153
0	2341606	1605	135
0	2342820	1606	115
0	2344070	1607	109
0	2345464	1608	125
0	2346864	1609	131
0	2348073	1610	93
0	2349457	1611	127
0	2350917	1612	119
0	2352562	1613	158
0	2354199	1614	164