version 3
run SimulationTime-240-20240108-13:22:14-8376
attr configname SimulationTime
attr datetime 20240108-13:22:14
attr datetimef 20240108-132214
attr experiment SimulationTime
attr inifile omnetpp.ini
attr iterationvars ""
attr iterationvarsd ""
attr iterationvarsf ""
attr measurement ""
attr network System
attr processid 8376
attr repetition 240
attr replication #240
attr resultdir results
attr runnumber 240
attr seedset 240
config **.cpu.rate 1000
config **.hd.rateProcessing 250
config **.webServer.web_server_rate 100
config **.p1 0.35
config **.p2 0.40
config network System
config num-rngs 4
config **.cpu.rng-0 0
config **.cpu.rng-1 1
config **.hd.rng-0 2
config **.webServer.rng-0 3
config repeat 500
config seed-set 240
config sim-time-limit 10000s
config **.client.numClients 40

vector 0 System.server.cpu requestCounterStat:vector ETV
attr recordingmode vector
attr source requestCounter
vector 1 System.server.hd utilizationHdStat:vector ETV
attr recordingmode vector
attr source utilizationHd
vector 2 System.server.cpu utilizationCpuStat:vector ETV
attr recordingmode vector
attr source utilizationCpu
vector 3 System.webServer utilizationWsStat:vector ETV
attr recordingmode vector
attr source utilizationWs
0	1632	1	161
0	2774	2	105
0	4369	3	148
0	6008	4	158
0	7412	5	141
0	9025	6	162
0	10271	7	101
0	11698	8	122
0	13011	9	124
0	14836	10	185
0	16304	11	143
0	17869	12	152
0	19130	13	104
0	20527	14	134
0	21954	15	120
0	23600	16	161
0	24973	17	122
0	26290	18	136
0	27470	19	109
0	29103	20	169
0	30552	21	146
0	32085	22	148
0	33343	23	131
0	34966	24	144
0	36449	25	162
0	37775	26	125
0	39465	27	163
0	40626	28	100
0	42284	29	167
0	43782	30	134
0	45059	31	140
0	46593	32	155
0	48048	33	126
0	49290	34	151
0	50433	35	100
0	52156	36	160
0	53444	37	115
0	54898	38	117
0	56236	39	123
0	57660	40	146
0	59359	41	146
0	60967	42	163
0	62484	43	150
0	63933	44	136
0	65469	45	155
0	66997	46	141
0	68479	47	135
0	69998	48	126
0	71154	49	115
0	72511	50	127
0	74126	51	160
0	75382	52	123
0	76929	53	148
0	78434	54	150
0	79990	55	139
0	81781	56	194
0	83290	57	152
0	84864	58	151
0	86306	59	151
0	87948	60	178
0	89297	61	136
0	91103	62	167
0	92340	63	108
0	94088	64	171
0	95660	65	143
0	96977	66	126
0	98744	67	200
0	100014	68	135
0	101690	69	169
0	102985	70	121
0	104519	71	139
0	105738	72	112
0	107672	73	203
0	109299	74	164
0	110947	75	169
0	112420	76	150
0	113741	77	122
0	115423	78	159
0	116897	79	155
0	118562	80	173
0	119973	81	124
0	121236	82	106
0	122890	83	155
0	124398	84	149
0	125649	85	114
0	126903	86	107
0	128325	87	151
0	129677	88	133
0	131236	89	138
0	132829	90	167
0	134502	91	156
0	136036	92	167
0	137613	93	144
0	139112	94	162
0	140326	95	91
0	142200	96	171
0	143476	97	125
0	144915	98	132
0	145863	99	79
0	147081	100	122
0	148536	101	146
0	149696	102	113
0	151123	103	150
0	152280	104	108
0	153870	105	163
0	155336	106	159
0	156739	107	126
0	158471	108	169
0	160063	109	173
0	161628	110	149
0	163314	111	173
0	164807	112	140
0	166264	113	156
0	167462	114	111
0	169301	115	206
0	170630	116	126
0	171984	117	119
0	173422	118	137
0	174979	119	156
0	176351	120	120
0	177639	121	123
0	179056	122	134
0	180231	123	106
0	181959	124	163
0	183261	125	117
0	184733	126	129
0	186040	127	130
0	187567	128	154
0	189134	129	138
0	190301	130	113
0	191736	131	138
0	193284	132	153
0	194955	133	166
0	196309	134	125
0	197589	135	123
0	199000	136	130
0	200519	137	138
0	201870	138	130
0	203413	139	148
0	205102	140	173
0	206775	141	152
0	208520	142	164
0	209795	143	108
0	211517	144	179
0	212589	145	99
0	214371	146	169
0	215958	147	160
0	217320	148	125
0	218520	149	107
0	220057	150	159
0	221522	151	158
0	222844	152	133
0	224520	153	167
0	226327	154	164
0	227843	155	131
0	229450	156	166
0	231151	157	170
0	232348	158	116
0	233941	159	156
0	235270	160	127
0	236530	161	121
0	238128	162	159
0	239452	163	135
0	240934	164	157
0	242217	165	122
0	243515	166	129
0	245031	167	155
0	246468	168	128
0	247513	169	72
0	248837	170	116
0	250270	171	124
0	251563	172	126
0	253063	173	127
0	254153	174	95
0	255746	175	168
0	257117	176	126
0	258799	177	163
0	260534	178	158
0	261904	179	139
0	263639	180	181
0	265065	181	123
0	266574	182	154
0	267710	183	99
0	269217	184	144
0	270667	185	157
0	272002	186	116
0	273177	187	112
0	274870	188	168
0	276171	189	120
0	277747	190	144
0	279204	191	144
0	280508	192	139
0	281917	193	118
0	283469	194	139
0	285095	195	163
0	286429	196	113
0	287904	197	126
0	289243	198	120
0	290710	199	136
0	292188	200	138
0	293595	201	120
0	294771	202	103
0	296159	203	141
0	297535	204	149
0	298978	205	148
0	300568	206	141
0	301879	207	118
0	303650	208	178
0	305480	209	171
0	306665	210	107
0	308076	211	154
0	309388	212	137
0	310512	213	93
0	311884	214	121
0	313088	215	103
0	314363	216	114
0	316293	217	181
0	317772	218	142
0	318967	219	116
0	320565	220	170
0	321668	221	112
0	323473	222	164
0	325094	223	158
0	327050	224	203
0	328614	225	141
0	330218	226	169
0	331695	227	136
0	332815	228	127
0	334119	229	119
0	335513	230	124
0	337194	231	166
0	338636	232	135
0	340323	233	162
0	341548	234	114
0	342673	235	90
0	344004	236	134
0	345936	237	193
0	347260	238	129
0	348955	239	170
0	350818	240	175
0	352491	241	158
0	353827	242	129
0	355402	243	144
0	356942	244	163
0	358510	245	131
0	359950	246	143
0	361326	247	149
0	362720	248	141
0	364114	249	123
0	365922	250	180
0	367366	251	145
0	368896	252	137
0	370449	253	136
0	371937	254	135
0	373262	255	136
0	374644	256	129
0	375565	257	78
0	377181	258	153
0	378731	259	159
0	380161	260	132
0	381446	261	124
0	383017	262	146
0	384360	263	128
0	385834	264	137
0	387397	265	130
0	388753	266	137
0	390238	267	152
0	391528	268	135
0	392826	269	123
0	394582	270	176
0	396153	271	136
0	397436	272	118
0	398952	273	149
0	400496	274	139
0	402139	275	170
0	403525	276	123
0	405127	277	157
0	406614	278	144
0	408346	279	169
0	409630	280	120
0	411402	281	183
0	412752	282	121
0	414482	283	177
0	416134	284	155
0	417623	285	136
0	419077	286	143
0	420276	287	102
0	421799	288	146
0	422916	289	116
0	424274	290	142
0	425362	291	121
0	426625	292	130
0	427941	293	117
0	429679	294	167
0	431280	295	164
0	432391	296	110
0	433874	297	134
0	435569	298	160
0	437123	299	143
0	438657	300	144
0	440148	301	128
0	441672	302	143
0	443001	303	126
0	444737	304	163
0	445782	305	98
0	447250	306	151
0	448795	307	162
0	450456	308	158
0	452227	309	166
0	453774	310	133
0	454930	311	115
0	456645	312	158
0	458198	313	158
0	459682	314	139
0	461114	315	127
0	462617	316	144
0	463621	317	83
0	465388	318	152
0	467102	319	175
0	468443	320	123
0	469933	321	133
0	471299	322	117
0	472476	323	118
0	473743	324	134
0	475332	325	142
0	476862	326	141
0	478495	327	142
0	479788	328	128
0	481207	329	132
0	482678	330	127
0	484285	331	156
0	485789	332	141
0	487422	333	158
0	488566	334	87
0	489951	335	128
0	491607	336	181
0	492895	337	123
0	494318	338	130
0	495727	339	134
0	497432	340	187
0	498714	341	111
0	499995	342	132
0	501243	343	121
0	502711	344	161
0	504131	345	139
0	505393	346	117
0	507090	347	164
0	508506	348	125
0	510083	349	172
0	511758	350	139
0	512924	351	109
0	514255	352	126
0	515608	353	124
0	516938	354	123
0	518278	355	131
0	519785	356	122
0	520957	357	109
0	522157	358	123
0	523830	359	144
0	525610	360	164
0	527218	361	177
0	528743	362	152
0	530169	363	123
0	531320	364	104
0	532936	365	161
0	534323	366	116
0	535980	367	144
0	537301	368	136
0	538953	369	149
0	540440	370	163
0	542358	371	193
0	543649	372	112
0	545241	373	155
0	546592	374	128
0	548207	375	156
0	549880	376	174
0	551263	377	132
0	552633	378	149
0	554024	379	134
0	555448	380	120
0	556900	381	143
0	558287	382	120
0	559650	383	126
0	561018	384	113
0	562286	385	121
0	563731	386	138
0	565419	387	161
0	567002	388	162
0	568669	389	154
0	570168	390	151
0	571876	391	179
0	573273	392	128
0	574672	393	122
0	576024	394	119
0	577348	395	127
0	578592	396	121
0	580118	397	127
0	581570	398	141
0	583128	399	151
0	584599	400	141
0	585966	401	118
0	587313	402	122
0	588560	403	110
0	589766	404	111
0	591281	405	142
0	592879	406	139
0	594461	407	143
0	596253	408	175
0	597637	409	123
0	598929	410	128
0	600332	411	126
0	601721	412	138
0	603122	413	136
0	604746	414	173
0	606493	415	172
0	607828	416	110
0	609286	417	157
0	610616	418	127
0	612040	419	133
0	613560	420	118
0	615082	421	159
0	616732	422	159
0	618355	423	158
0	619831	424	137
0	621343	425	137
0	622842	426	142
0	624097	427	118
0	625448	428	122
0	626973	429	124
0	628490	430	155
0	630009	431	144
0	631594	432	152
0	633088	433	145
0	634512	434	139
0	636173	435	170
0	637767	436	149
0	639016	437	106
0	640160	438	121
0	641882	439	201
0	643393	440	167
0	644737	441	131
0	646153	442	129
0	647577	443	147
0	648767	444	113
0	650027	445	123
0	651444	446	122
0	652847	447	124
0	654279	448	147
0	655549	449	125
0	656837	450	124
0	658311	451	143
0	659856	452	160
0	661218	453	119
0	662390	454	115
0	664052	455	175
0	665534	456	161
0	667064	457	135
0	668459	458	138
0	669877	459	135
0	671473	460	152
0	673166	461	168
0	674799	462	160
0	676199	463	129
0	677818	464	162
0	679206	465	145
0	680728	466	131
0	682171	467	154
0	683765	468	155
0	685470	469	164
0	687208	470	184
0	688488	471	113
0	690261	472	196
0	691779	473	159
0	693319	474	135
0	694591	475	121
0	696061	476	147
0	697353	477	125
0	698903	478	139
0	700158	479	126
0	701723	480	149
0	703494	481	158
0	705094	482	139
0	706568	483	167
0	707933	484	152
0	709449	485	161
0	710840	486	126
0	712223	487	110
0	713630	488	128
0	715441	489	200
0	716795	490	126
0	718381	491	153
0	719823	492	139
0	721724	493	184
0	723270	494	145
0	724859	495	144
0	726226	496	126
0	727794	497	153
0	729496	498	171
0	730615	499	94
0	732089	500	146
0	733933	501	213
0	735454	502	144
0	736815	503	124
0	738546	504	178
0	740176	505	167
0	741650	506	123
0	742874	507	93
0	744414	508	157
0	745837	509	142
0	747189	510	130
0	748534	511	134
0	750202	512	153
0	751742	513	153
0	753158	514	137
0	754452	515	139
0	756103	516	146
0	757876	517	180
0	759118	518	119
0	760738	519	165
0	762119	520	127
0	763417	521	107
0	764884	522	138
0	766248	523	119
0	767872	524	149
0	769346	525	139
0	770705	526	120
0	772154	527	114
0	773783	528	174
0	775153	529	135
0	776630	530	151
0	777938	531	133
0	779401	532	138
0	780978	533	146
0	782291	534	124
0	784002	535	170
0	785359	536	122
0	787067	537	177
0	788763	538	171
0	790015	539	123
0	791616	540	157
0	793226	541	175
0	795007	542	164
0	796501	543	161
0	797715	544	107
0	799105	545	135
0	800628	546	146
0	802323	547	176
0	804080	548	188
0	805745	549	174
0	807212	550	121
0	808727	551	134
0	809972	552	108
0	811563	553	162
0	813049	554	137
0	814561	555	143
0	815999	556	131
0	817204	557	88
0	818781	558	154
0	820333	559	147
0	821832	560	155
0	823529	561	166
0	825162	562	140
0	826869	563	162
0	828080	564	110
0	829800	565	169
0	831291	566	150
0	832457	567	119
0	834045	568	139
0	835728	569	160
0	837346	570	162
0	838956	571	147
0	840530	572	155
0	841930	573	145
0	843177	574	122
0	844952	575	158
0	846257	576	104
0	847708	577	154
0	849347	578	182
0	850764	579	140
0	852239	580	139
0	853667	581	151
0	855005	582	109
0	856419	583	129
0	857854	584	126
0	859430	585	149
0	861363	586	204
0	862580	587	116
0	863886	588	125
0	865368	589	125
0	867265	590	171
0	868832	591	150
0	870338	592	127
0	871832	593	123
0	873178	594	113
0	874288	595	109
0	875410	596	83
0	876985	597	162
0	878459	598	143
0	879961	599	147
0	881432	600	127
0	882970	601	133
0	884145	602	102
0	885364	603	114
0	886776	604	133
0	888624	605	169
0	890185	606	160
0	891886	607	152
0	893316	608	145
0	894790	609	157
0	896104	610	130
0	897436	611	117
0	899364	612	181
0	900889	613	158
0	902185	614	115
0	903780	615	158
0	904856	616	89
0	906240	617	131
0	907545	618	118
0	908939	619	135
0	910248	620	111
0	911620	621	133
0	913243	622	138
0	914605	623	123
0	916011	624	131
0	917435	625	133
0	918761	626	131
0	920235	627	145
0	921496	628	106
0	922744	629	111
0	923997	630	123
0	925587	631	139
0	926994	632	120
0	928628	633	161
0	929848	634	111
0	931122	635	123
0	932778	636	153
0	934507	637	162
0	936201	638	169
0	937331	639	101
0	938812	640	139
0	940121	641	108
0	941369	642	111
0	942737	643	117
0	944255	644	147
0	945938	645	142
0	947702	646	179
0	949134	647	151
0	950385	648	126
0	951922	649	150
0	953576	650	164
0	954813	651	116
0	956472	652	158
0	957885	653	116
0	959334	654	132
0	960877	655	154
0	962411	656	137
0	963769	657	123
0	965350	658	154
0	966861	659	134
0	968120	660	121
0	969589	661	152
0	971246	662	134
0	972863	663	164
0	974531	664	165
0	976048	665	118
0	977374	666	123
0	978762	667	121
0	980437	668	146
0	981853	669	125
0	983225	670	116
0	984564	671	130
0	986284	672	181
0	987771	673	136
0	989384	674	134
0	991003	675	156
0	992119	676	111
0	993864	677	182
0	995234	678	141
0	996120	679	63
0	997371	680	133
0	999005	681	153
0	1000509	682	139
0	1001608	683	106
0	1002945	684	122
0	1004521	685	143
0	1006057	686	133
0	1007562	687	142
0	1009041	688	122
0	1010198	689	114
0	1011674	690	146
0	1012925	691	140
0	1014247	692	103
0	1015966	693	170
0	1017536	694	143
0	1019225	695	162
0	1020686	696	138
0	1022210	697	167
0	1023523	698	118
0	1025125	699	167
0	1026670	700	135
0	1027978	701	121
0	1029512	702	147
0	1030888	703	125
0	1032473	704	154
0	1033991	705	149
0	1035257	706	111
0	1036517	707	115
0	1038275	708	171
0	1039724	709	138
0	1041407	710	163
0	1042808	711	138
0	1044223	712	128
0	1045674	713	138
0	1046811	714	110
0	1048102	715	134
0	1049653	716	130
0	1051136	717	132
0	1052924	718	179
0	1054043	719	106
0	1055677	720	150
0	1057464	721	192
0	1059115	722	164
0	1060757	723	147
0	1062130	724	130
0	1063813	725	174
0	1065372	726	132
0	1066831	727	150
0	1068256	728	132
0	1069563	729	134
0	1071150	730	169
0	1072683	731	152
0	1074016	732	122
0	1075412	733	133
0	1076797	734	156
0	1078552	735	172
0	1079853	736	140
0	1081124	737	120
0	1082583	738	132
0	1083951	739	133
0	1085225	740	130
0	1086529	741	115
0	1088008	742	152
0	1089386	743	131
0	1090746	744	129
0	1092309	745	162
0	1093963	746	171
0	1095297	747	135
0	1096505	748	97
0	1097821	749	113
0	1099374	750	143
0	1100940	751	159
0	1102679	752	174
0	1104098	753	134
0	1105666	754	145
0	1107236	755	147
0	1108548	756	133
0	1109898	757	135
0	1111607	758	160
0	1113019	759	125
0	1114720	760	151
0	1115806	761	99
0	1117242	762	141
0	1118372	763	99
0	1119827	764	136
0	1121471	765	167
0	1123018	766	158
0	1124517	767	162
0	1126320	768	174
0	1127767	769	132
0	1129082	770	131
0	1130378	771	113
0	1131830	772	121
0	1132948	773	91
0	1134425	774	132
0	1136075	775	151
0	1137210	776	108
0	1138669	777	140
0	1140033	778	127
0	1141486	779	138
0	1143107	780	151
0	1144286	781	114
0	1145859	782	156
0	1147462	783	170
0	1149276	784	183
0	1150812	785	121
0	1152425	786	158
0	1154000	787	186
0	1155366	788	113
0	1156989	789	148
0	1158362	790	133
0	1160010	791	181
0	1161494	792	145
0	1162912	793	139
0	1164110	794	103
0	1165465	795	132
0	1166849	796	131
0	1168132	797	122
0	1169422	798	121
0	1171037	799	150
0	1172354	800	121
0	1173767	801	116
0	1175238	802	150
0	1176579	803	124
0	1178244	804	158
0	1179851	805	166
0	1181234	806	134
0	1182458	807	119
0	1183857	808	142
0	1185132	809	110
0	1186534	810	130
0	1188217	811	174
0	1189815	812	191
0	1191413	813	143
0	1193073	814	173
0	1194707	815	149
0	1195937	816	101
0	1197237	817	121
0	1198337	818	95
0	1199926	819	150
0	1201437	820	159
0	1202773	821	127
0	1204373	822	165
0	1205992	823	170
0	1207415	824	130
0	1209073	825	151
0	1210430	826	136
0	1211898	827	139
0	1213666	828	171
0	1215363	829	156
0	1217058	830	161
0	1218401	831	138
0	1219848	832	134
0	1221519	833	174
0	1223103	834	155
0	1224441	835	141
0	1225982	836	144
0	1227168	837	99
0	1228740	838	151
0	1230493	839	186
0	1231957	840	128
0	1233216	841	118
0	1234663	842	134
0	1235934	843	112
0	1237344	844	143
0	1238839	845	148
0	1240108	846	112
0	1241443	847	134
0	1242987	848	153
0	1244581	849	151
0	1245562	850	89
0	1247191	851	166
0	1248744	852	168
0	1249912	853	113
0	1251293	854	134
0	1252662	855	124
0	1254142	856	149
0	1255520	857	137
0	1256969	858	156
0	1258739	859	183
0	1260090	860	137
0	1261752	861	167
0	1263143	862	126
0	1264613	863	139
0	1266135	864	143
0	1267804	865	160
0	1269309	866	140
0	1270740	867	134
0	1272257	868	138
0	1273865	869	147
0	1275435	870	168
0	1276798	871	128
0	1278317	872	142
0	1279879	873	147
0	1281513	874	163
0	1283328	875	162
0	1284743	876	126
0	1286229	877	145
0	1287877	878	171
0	1289166	879	116
0	1290370	880	124
0	1292022	881	171
0	1293421	882	134
0	1295021	883	153
0	1296257	884	123
0	1297789	885	163
0	1298958	886	110
0	1300520	887	159
0	1302226	888	177
0	1303707	889	154
0	1305153	890	122
0	1306610	891	132
0	1308106	892	141
0	1309601	893	148
0	1310892	894	132
0	1312298	895	127
0	1313847	896	136
0	1315573	897	151
0	1316949	898	133
0	1318195	899	115
0	1319818	900	165
0	1321541	901	162
0	1323217	902	157
0	1324743	903	143
0	1326075	904	117
0	1327475	905	131
0	1329094	906	152
0	1330584	907	151
0	1331772	908	97
0	1333424	909	169
0	1335023	910	147
0	1336752	911	182
0	1338729	912	186
0	1340205	913	155
0	1341579	914	119
0	1342986	915	134
0	1344705	916	170
0	1346109	917	125
0	1347737	918	173
0	1349490	919	168
0	1351161	920	169
0	1352352	921	110
0	1354120	922	169
0	1355312	923	105
0	1356453	924	96
0	1357890	925	140
0	1359383	926	128
0	1360811	927	133
0	1362414	928	174
0	1364141	929	178
0	1365652	930	137
0	1366974	931	125
0	1368580	932	149
0	1370364	933	175
0	1371644	934	123
0	1372858	935	113
0	1374039	936	102
0	1375845	937	165
0	1377214	938	120
0	1378881	939	156
0	1380315	940	130
0	1381762	941	124
0	1383095	942	130
0	1384650	943	154
0	1386143	944	150
0	1387519	945	137
0	1389041	946	145
0	1390393	947	129
0	1391703	948	143
0	1393172	949	146
0	1394438	950	124
0	1395756	951	131
0	1397387	952	180
0	1398825	953	153
0	1400287	954	123
0	1401532	955	116
0	1403383	956	194
0	1404764	957	132
0	1406005	958	120
0	1407360	959	134
0	1409052	960	154
0	1410515	961	156
0	1411779	962	117
0	1413251	963	123
0	1414703	964	137
0	1416468	965	170
0	1417785	966	132
0	1419277	967	141
0	1420929	968	149
0	1422497	969	169
0	1424113	970	158
0	1425613	971	147
0	1426874	972	116
0	1428278	973	147
0	1429889	974	156
0	1431422	975	144
0	1433103	976	156
0	1434390	977	110
0	1435649	978	106
0	1437229	979	157
0	1438836	980	157
0	1440436	981	161
0	1442198	982	195
0	1443471	983	124
0	1444839	984	125
0	1446288	985	136
0	1447571	986	134
0	1448873	987	119
0	1450511	988	163
0	1451858	989	142
0	1453446	990	160
0	1454776	991	119
0	1456256	992	129
0	1457675	993	126
0	1459153	994	143
0	1460654	995	146
0	1462010	996	115
0	1463433	997	130
0	1465187	998	187
0	1466703	999	133
0	1468255	1000	144
0	1469789	1001	151
0	1471251	1002	139
0	1472677	1003	137
0	1474225	1004	155
0	1475258	1005	88
0	1476610	1006	121
0	1478060	1007	123
0	1479403	1008	122
0	1480737	1009	137
0	1481998	1010	129
0	1483585	1011	150
0	1484915	1012	139
0	1486302	1013	136
0	1487714	1014	141
0	1489170	1015	121
0	1490709	1016	148
0	1492155	1017	137
0	1493470	1018	128
0	1495302	1019	191
0	1496972	1020	176
0	1498438	1021	137
0	1499612	1022	119
0	1500973	1023	118
0	1502407	1024	135
0	1503927	1025	145
0	1505457	1026	139
0	1506465	1027	97
0	1507838	1028	120
0	1509080	1029	117
0	1510631	1030	139
0	1512114	1031	142
0	1513475	1032	128
0	1515066	1033	172
0	1516443	1034	128
0	1517951	1035	167
0	1519409	1036	147
0	1520906	1037	144
0	1522403	1038	140
0	1523779	1039	147
0	1524957	1040	122
0	1526315	1041	125
0	1527865	1042	165
0	1529363	1043	143
0	1530994	1044	146
0	1532403	1045	144
0	1533836	1046	138
0	1535251	1047	138
0	1537216	1048	212
0	1538643	1049	138
0	1539848	1050	123
0	1541337	1051	116
0	1542926	1052	168
0	1544159	1053	116
0	1545576	1054	144
0	1546961	1055	134
0	1548916	1056	184
0	1550562	1057	157
0	1551888	1058	127
0	1553514	1059	153
0	1554682	1060	122
0	1556080	1061	135
0	1557447	1062	144
0	1558779	1063	137
0	1560539	1064	169
0	1562220	1065	188
0	1563813	1066	154
0	1565158	1067	138
0	1566674	1068	143
0	1568200	1069	137
0	1569694	1070	166
0	1571327	1071	172
0	1572801	1072	123
0	1574091	1073	117
0	1575638	1074	144
0	1576847	1075	114
0	1578268	1076	132
0	1579516	1077	111
0	1580912	1078	129
0	1582524	1079	149
0	1583743	1080	105
0	1585019	1081	125
0	1586555	1082	145
0	1588146	1083	154
0	1589862	1084	169
0	1591401	1085	150
0	1592687	1086	115
0	1594549	1087	203
0	1596364	1088	182
0	1597960	1089	187
0	1599204	1090	106
0	1600713	1091	162
0	1602164	1092	140
0	1603643	1093	124
0	1605190	1094	152
0	1606706	1095	155
0	1607825	1096	100
0	1609343	1097	143
0	1610579	1098	109
0	1611873	1099	125
0	1613553	1100	174
0	1615216	1101	158
0	1616406	1102	103
0	1617978	1103	145
0	1619282	1104	135
0	1620840	1105	161
0	1621978	1106	95
0	1624004	1107	213
0	1625641	1108	148
0	1626973	1109	117
0	1628661	1110	158
0	1630506	1111	204
0	1631765	1112	108
0	1633081	1113	127
0	1634667	1114	141
0	1636278	1115	156
0	1637677	1116	120
0	1638983	1117	111
0	1640269	1118	125
0	1641861	1119	177
0	1643575	1120	150
0	1645189	1121	149
0	1646686	1122	138
0	1648292	1123	171
0	1650001	1124	164
0	1651253	1125	115
0	1652608	1126	130
0	1654185	1127	154
0	1655563	1128	121
0	1657198	1129	164
0	1658745	1130	137
0	1660256	1131	150
0	1661576	1132	121
0	1662815	1133	122
0	1664331	1134	159
0	1665648	1135	132
0	1667095	1136	136
0	1668499	1137	151
0	1669820	1138	126
0	1671315	1139	144
0	1672882	1140	157
0	1674272	1141	127
0	1676062	1142	175
0	1677400	1143	133
0	1678686	1144	119
0	1680127	1145	134
0	1681345	1146	109
0	1682883	1147	151
0	1684126	1148	120
0	1685326	1149	109
0	1686569	1150	107
0	1687907	1151	135
0	1689183	1152	119
0	1690510	1153	112
0	1691948	1154	143
0	1693369	1155	144
0	1694752	1156	140
0	1696366	1157	149
0	1697952	1158	131
0	1699348	1159	113
0	1700994	1160	154
0	1702614	1161	167
0	1704145	1162	154
0	1705606	1163	146
0	1707026	1164	151
0	1708394	1165	151
0	1709940	1166	145
0	1711337	1167	130
0	1713154	1168	196
0	1714460	1169	119
0	1716443	1170	191
0	1717649	1171	87
0	1719160	1172	148
0	1720727	1173	144
0	1722300	1174	166
0	1723812	1175	161
0	1725040	1176	113
0	1726220	1177	117
0	1727448	1178	131
0	1728881	1179	138
0	1730707	1180	190
0	1731997	1181	125
0	1733517	1182	151
0	1734897	1183	129
0	1736155	1184	111
0	1737803	1185	155
0	1739347	1186	151
0	1740891	1187	151
0	1742447	1188	139
0	1743574	1189	102
0	1745062	1190	142
0	1746227	1191	98
0	1747560	1192	116
0	1749143	1193	146
0	1750790	1194	178
0	1752214	1195	129
0	1753810	1196	155
0	1755034	1197	109
0	1756579	1198	154
0	1758281	1199	155
0	1759866	1200	155
0	1760970	1201	107
0	1762470	1202	153
0	1763874	1203	143
0	1765408	1204	151
0	1766704	1205	137
0	1768248	1206	153
0	1769494	1207	113
0	1770992	1208	131
0	1772246	1209	121
0	1773780	1210	178
0	1775336	1211	161
0	1777107	1212	180
0	1778366	1213	124
0	1779924	1214	155
0	1781675	1215	162
0	1783217	1216	149
0	1784819	1217	131
0	1786064	1218	114
0	1787564	1219	129
0	1788617	1220	91
0	1789676	1221	106
0	1791095	1222	150
0	1792506	1223	138
0	1794072	1224	141
0	1795574	1225	141
0	1797072	1226	151
0	1798774	1227	163
0	1799885	1228	98
0	1801284	1229	122
0	1802859	1230	139
0	1804767	1231	207
0	1805879	1232	113
0	1807465	1233	171
0	1809190	1234	176
0	1810856	1235	167
0	1812448	1236	165
0	1813647	1237	102
0	1814919	1238	117
0	1816157	1239	119
0	1817551	1240	138
0	1819138	1241	158
0	1820886	1242	173
0	1822367	1243	144
0	1824230	1244	198
0	1826048	1245	211
0	1827644	1246	165
0	1828943	1247	142
0	1830619	1248	149
0	1831902	1249	114
0	1833066	1250	120
0	1834644	1251	159
0	1836204	1252	149
0	1837604	1253	129
0	1839104	1254	141
0	1840259	1255	98
0	1841512	1256	124
0	1842953	1257	140
0	1844279	1258	127
0	1845579	1259	125
0	1847194	1260	145
0	1848485	1261	118
0	1850014	1262	156
0	1851618	1263	157
0	1852955	1264	120
0	1854454	1265	146
0	1855786	1266	141
0	1857236	1267	133
0	1858593	1268	130
0	1859974	1269	138
0	1861490	1270	140
0	1862947	1271	138
0	1864125	1272	107
0	1865768	1273	158
0	1867304	1274	143
0	1869177	1275	194
0	1870551	1276	135
0	1871866	1277	114
0	1873321	1278	146
0	1874754	1279	140
0	1876289	1280	147
0	1877893	1281	149
0	1879151	1282	115
0	1880951	1283	185
0	1882408	1284	134
0	1883721	1285	128
0	1885134	1286	136
0	1886654	1287	137
0	1888037	1288	134
0	1889626	1289	152
0	1891280	1290	156
0	1892776	1291	145
0	1894255	1292	138
0	1895728	1293	146
0	1897238	1294	145
0	1898785	1295	156
0	1900087	1296	127
0	1901825	1297	161
0	1903601	1298	163
0	1904680	1299	108
0	1906115	1300	137
0	1907661	1301	133
0	1909055	1302	135
0	1910510	1303	148
0	1912149	1304	156
0	1913678	1305	122
0	1915247	1306	172
0	1916823	1307	159
0	1918403	1308	151
0	1920026	1309	152
0	1921707	1310	177
0	1923055	1311	125
0	1924404	1312	138
0	1926008	1313	153
0	1927348	1314	129
0	1928654	1315	135
0	1930004	1316	135
0	1931527	1317	154
0	1933356	1318	176
0	1934760	1319	121
0	1936430	1320	144
0	1937856	1321	131
0	1939307	1322	126
0	1940781	1323	153
0	1942070	1324	132
0	1943336	1325	115
0	1944693	1326	120
0	1946089	1327	129
0	1947456	1328	114
0	1949112	1329	159
0	1950206	1330	108
0	1951562	1331	145
0	1953259	1332	168
0	1954473	1333	107
0	1955826	1334	116
0	1957127	1335	116
0	1958425	1336	119
0	1959753	1337	141
0	1961333	1338	161
0	1962831	1339	143
0	1964257	1340	130
0	1965761	1341	163
0	1967168	1342	142
0	1968774	1343	157
0	1970107	1344	132
0	1971697	1345	153
0	1973342	1346	158
0	1974888	1347	147
0	1976420	1348	147
0	1977886	1349	149
0	1979452	1350	130
0	1980934	1351	135
0	1982240	1352	119
0	1983640	1353	141
0	1985036	1354	139
0	1986304	1355	111
0	1988124	1356	189
0	1989645	1357	152
0	1990747	1358	115
0	1992210	1359	146
0	1993893	1360	165
0	1995198	1361	124
0	1996665	1362	148
0	1997845	1363	107
0	1999333	1364	153
0	2000845	1365	161
0	2002388	1366	154
0	2003745	1367	140
0	2004925	1368	101
0	2006197	1369	109
0	2007890	1370	185
0	2009512	1371	169
0	2010940	1372	117
0	2012449	1373	142
0	2013765	1374	135
0	2015194	1375	140
0	2016356	1376	103
0	2017261	1377	76
0	2018768	1378	146
0	2019744	1379	79
0	2021213	1380	143
0	2023033	1381	189
0	2024459	1382	145
0	2025831	1383	139
0	2027445	1384	171
0	2028949	1385	153
0	2030675	1386	167
0	2032091	1387	131
0	2033436	1388	132
0	2034883	1389	146
0	2036482	1390	159
0	2037744	1391	133
0	2039207	1392	118
0	2040865	1393	171
0	2042026	1394	112
0	2043341	1395	106
0	2044860	1396	164
0	2046382	1397	159
0	2048173	1398	168
0	2049696	1399	156
0	2051520	1400	194
0	2052621	1401	104
0	2054040	1402	154
0	2055657	1403	166
0	2056974	1404	126
0	2058391	1405	116
0	2059869	1406	137
0	2061501	1407	147
0	2063212	1408	166
0	2064705	1409	148
0	2066190	1410	127
0	2067916	1411	165
0	2069408	1412	127
0	2070780	1413	121
0	2072431	1414	156
0	2073578	1415	108
0	2074832	1416	99
0	2076034	1417	97
0	2077431	1418	118
0	2078872	1419	142
0	2080685	1420	175
0	2082104	1421	148
0	2083867	1422	148
0	2085344	1423	148
0	2086891	1424	152
0	2088202	1425	118
0	2089558	1426	127
0	2091306	1427	155
0	2093013	1428	174
0	2094521	1429	149
0	2095863	1430	142
0	2097419	1431	155
0	2098976	1432	162
0	2100662	1433	167
0	2102228	1434	143
0	2103825	1435	160
0	2105079	1436	119
0	2106578	1437	162
0	2108032	1438	135
0	2109599	1439	158
0	2111078	1440	133
0	2112210	1441	97
0	2113622	1442	145
0	2115284	1443	175
0	2116757	1444	136
0	2118563	1445	163
0	2120026	1446	138
0	2121661	1447	154
0	2123195	1448	153
0	2124656	1449	128
0	2126160	1450	138
0	2127875	1451	158
0	2129472	1452	148
0	2130661	1453	104
0	2132522	1454	170
0	2134101	1455	138
0	2135582	1456	154
0	2136945	1457	138
0	2138609	1458	163
0	2140079	1459	141
0	2141579	1460	136
0	2143014	1461	142
0	2144439	1462	114
0	2146005	1463	145
0	2147275	1464	131
0	2148967	1465	161
0	2150459	1466	165
0	2151667	1467	117
0	2153139	1468	161
0	2154481	1469	125
0	2156016	1470	147
0	2157458	1471	133
0	2159614	1472	251
0	2161072	1473	139
0	2162283	1474	106
0	2163595	1475	127
0	2165178	1476	124
0	2166415	1477	116
0	2168132	1478	170
0	2169747	1479	140
0	2171114	1480	123
0	2172480	1481	129
0	2173718	1482	123
0	2175122	1483	119
0	2176243	1484	102
0	2177634	1485	126
0	2179387	1486	166
0	2181009	1487	159
0	2182485	1488	141
0	2184237	1489	175
0	2185635	1490	142
0	2187029	1491	129
0	2188514	1492	150
0	2189824	1493	127
0	2191203	1494	120
0	2192424	1495	122
0	2194255	1496	178
0	2195858	1497	154
0	2197724	1498	177
0	2199135	1499	130
0	2200520	1500	129
0	2201970	1501	139
0	2203798	1502	171
0	2205076	1503	125
0	2206540	1504	133
0	2207804	1505	125
0	2209205	1506	134
0	2210768	1507	142
0	2212181	1508	130
0	2213958	1509	172
0	2215232	1510	110
0	2216588	1511	137
0	2217756	1512	121
0	2219275	1513	166
0	2221126	1514	190
0	2222645	1515	162
0	2224003	1516	139
0	2225334	1517	124
0	2226336	1518	83
0	2227759	1519	140
0	2229494	1520	165
0	2230979	1521	134
0	2232400	1522	138
0	2233433	1523	88
0	2234900	1524	128
0	2236624	1525	163
0	2237914	1526	125
0	2238987	1527	102
0	2240148	1528	120
0	2241557	1529	140
0	2243325	1530	164
0	2244621	1531	117
0	2246250	1532	148
0	2247996	1533	159
0	2249460	1534	117
0	2250867	1535	138
0	2252378	1536	134
0	2253728	1537	131
0	2255162	1538	117
0	2256559	1539	122
0	2257843	1540	104
0	2259464	1541	160
0	2261020	1542	159
0	2262250	1543	101
0	2263499	1544	104
0	2265146	1545	142
0	2267065	1546	182
0	2268645	1547	163
0	2270226	1548	142
0	2271639	1549	124
0	2273011	1550	148
0	2274313	1551	127
0	2275772	1552	138
0	2277242	1553	123
0	2278607	1554	140
0	2279704	1555	100
0	2281051	1556	96
0	2282626	1557	150
0	2284330	1558	155
0	2286121	1559	178
0	2287552	1560	141
0	2288740	1561	103
0	2290333	1562	154
0	2291944	1563	146
0	2293178	1564	87
0	2294819	1565	156
0	2296493	1566	179
0	2297926	1567	140
0	2299409	1568	136
0	2300888	1569	144
0	2302500	1570	156
0	2303940	1571	125
0	2305118	1572	111
0	2306447	1573	136
0	2307726	1574	122
0	2308920	1575	123
0	2310618	1576	167
0	2312002	1577	121
0	2313412	1578	137
0	2314804	1579	127
0	2316267	1580	127
0	2317852	1581	142
0	2319507	1582	154
0	2320981	1583	155
0	2322389	1584	137
0	2323562	1585	104
0	2325076	1586	147
0	2326034	1587	83
0	2327405	1588	132
0	2329002	1589	154
0	2330681	1590	155
0	2332148	1591	154
0	2333413	1592	110
0	2334846	1593	142
0	2336381	1594	152
0	2337881	1595	165
0	2339242	1596	124
0	2340670	1597	131
0	2341936	1598	109
0	2343482	1599	147
0	2344948	1600	138
0	2346338	1601	143
0	2347790	1602	147
0	2348903	1603	106
0	2350222	1604	114
0	2351743	1605	124
0	2353476	1606	178
0	2355181	1607	162
0	2356645	1608	143
0	2358013	1609	139
0	2359553	1610	148
0	2361033	1611	137
0	2362672	1612	166
0	2363934	1613	131
0	2365613	1614	174