version 3
run SimulationTime-250-20240108-13:22:21-12168
attr configname SimulationTime
attr datetime 20240108-13:22:21
attr datetimef 20240108-132221
attr experiment SimulationTime
attr inifile omnetpp.ini
attr iterationvars ""
attr iterationvarsd ""
attr iterationvarsf ""
attr measurement ""
attr network System
attr processid 12168
attr repetition 250
attr replication #250
attr resultdir results
attr runnumber 250
attr seedset 250
config **.cpu.rate 1000
config **.hd.rateProcessing 250
config **.webServer.web_server_rate 100
config **.p1 0.35
config **.p2 0.40
config network System
config num-rngs 4
config **.cpu.rng-0 0
config **.cpu.rng-1 1
config **.hd.rng-0 2
config **.webServer.rng-0 3
config repeat 500
config seed-set 250
config sim-time-limit 10000s
config **.client.numClients 40

vector 0 System.server.cpu requestCounterStat:vector ETV
attr recordingmode vector
attr source requestCounter
vector 1 System.server.hd utilizationHdStat:vector ETV
attr recordingmode vector
attr source utilizationHd
vector 2 System.server.cpu utilizationCpuStat:vector ETV
attr recordingmode vector
attr source utilizationCpu
vector 3 System.webServer utilizationWsStat:vector ETV
attr recordingmode vector
attr source utilizationWs
0	2120	1	209
0	3612	2	145
0	5319	3	176
0	7089	4	185
0	8861	5	173
0	10257	6	137
0	11569	7	125
0	12815	8	109
0	14426	9	154
0	15831	10	125
0	17294	11	130
0	18760	12	135
0	20182	13	123
0	21691	14	152
0	23166	15	138
0	24709	16	154
0	25896	17	104
0	27008	18	99
0	28245	19	116
0	29690	20	119
0	31110	21	133
0	32360	22	135
0	33533	23	110
0	34799	24	113
0	36347	25	169
0	37600	26	108
0	38894	27	119
0	40158	28	105
0	41595	29	138
0	43003	30	140
0	44290	31	118
0	45805	32	144
0	47549	33	181
0	48613	34	101
0	49875	35	107
0	51374	36	150
0	52533	37	106
0	54231	38	159
0	55403	39	131
0	56697	40	124
0	58051	41	129
0	59805	42	169
0	61217	43	105
0	62753	44	165
0	64313	45	145
0	65835	46	145
0	67286	47	160
0	68990	48	179
0	70417	49	144
0	72047	50	162
0	73438	51	138
0	74891	52	138
0	76252	53	118
0	77877	54	176
0	79460	55	160
0	80989	56	140
0	82491	57	127
0	83824	58	116
0	85148	59	99
0	86744	60	156
0	88562	61	179
0	90143	62	158
0	91709	63	145
0	93211	64	163
0	94490	65	130
0	95975	66	152
0	97506	67	130
0	98901	68	122
0	100229	69	121
0	101950	70	159
0	103448	71	145
0	104987	72	140
0	106621	73	173
0	108341	74	187
0	109384	75	86
0	110717	76	128
0	112078	77	114
0	113573	78	150
0	114911	79	109
0	116446	80	127
0	118085	81	162
0	119618	82	158
0	120895	83	120
0	122275	84	115
0	123607	85	115
0	125137	86	155
0	126496	87	122
0	127712	88	113
0	129041	89	130
0	130567	90	146
0	132113	91	125
0	133651	92	143
0	135065	93	123
0	136595	94	157
0	138245	95	165
0	139956	96	172
0	141325	97	126
0	142755	98	135
0	144131	99	127
0	145597	100	132
0	146852	101	112
0	148412	102	147
0	150004	103	157
0	151131	104	96
0	152711	105	161
0	154092	106	136
0	155458	107	129
0	156875	108	130
0	158488	109	158
0	160150	110	166
0	161491	111	134
0	162885	112	137
0	164437	113	153
0	165914	114	160
0	167401	115	162
0	168735	116	107
0	170326	117	148
0	172015	118	148
0	173200	119	110
0	174814	120	174
0	176485	121	168
0	178038	122	170
0	179219	123	108
0	181009	124	183
0	182234	125	106
0	183751	126	156
0	185075	127	121
0	186305	128	107
0	187738	129	118
0	189058	130	136
0	190253	131	118
0	192202	132	200
0	193762	133	153
0	194861	134	104
0	196631	135	177
0	197920	136	140
0	199398	137	147
0	200839	138	142
0	202220	139	130
0	203746	140	158
0	205105	141	132
0	206616	142	140
0	207586	143	99
0	209060	144	135
0	210647	145	142
0	212241	146	139
0	213500	147	94
0	214952	148	149
0	216705	149	158
0	218060	150	143
0	219620	151	145
0	221011	152	128
0	222221	153	111
0	223596	154	144
0	224994	155	123
0	226337	156	132
0	227858	157	142
0	229225	158	138
0	230473	159	107
0	231904	160	139
0	233198	161	129
0	234774	162	165
0	236168	163	125
0	237766	164	157
0	239556	165	175
0	241189	166	146
0	242781	167	157
0	244255	168	135
0	245817	169	155
0	247574	170	167
0	249029	171	152
0	250482	172	138
0	251980	173	157
0	253313	174	124
0	254474	175	112
0	255981	176	140
0	257270	177	132
0	258723	178	138
0	260362	179	156
0	261674	180	140
0	263227	181	160
0	264587	182	135
0	265882	183	124
0	267376	184	151
0	268910	185	151
0	270512	186	155
0	272084	187	145
0	273607	188	152
0	275550	189	208
0	276921	190	133
0	278444	191	148
0	280110	192	181
0	281697	193	158
0	283242	194	136
0	284458	195	123
0	285694	196	111
0	287218	197	133
0	288592	198	127
0	289977	199	128
0	291326	200	131
0	292856	201	139
0	294294	202	137
0	295681	203	118
0	296739	204	93
0	298203	205	139
0	299519	206	123
0	301168	207	170
0	302866	208	177
0	304431	209	150
0	306157	210	182
0	307808	211	148
0	309463	212	158
0	310725	213	119
0	311896	214	114
0	313941	215	208
0	315516	216	158
0	317103	217	146
0	318714	218	164
0	320043	219	144
0	321246	220	109
0	322785	221	152
0	324220	222	138
0	325740	223	185
0	327387	224	156
0	328913	225	145
0	330619	226	157
0	331773	227	97
0	333300	228	162
0	334674	229	125
0	335799	230	99
0	337359	231	151
0	338937	232	181
0	340531	233	173
0	342189	234	179
0	343711	235	139
0	344933	236	119
0	346383	237	141
0	348097	238	165
0	349294	239	106
0	350677	240	129
0	352035	241	121
0	353724	242	164
0	355298	243	145
0	356691	244	130
0	358037	245	143
0	359420	246	128
0	360680	247	119
0	361969	248	132
0	363229	249	105
0	364898	250	161
0	366349	251	144
0	367858	252	156
0	369313	253	134
0	370724	254	130
0	372303	255	154
0	373854	256	154
0	375167	257	116
0	376770	258	150
0	378435	259	156
0	379836	260	125
0	381608	261	179
0	382979	262	118
0	384432	263	148
0	386129	264	162
0	387554	265	130
0	389309	266	172
0	390870	267	146
0	392412	268	139
0	393925	269	132
0	395268	270	117
0	396712	271	149
0	398273	272	160
0	399689	273	147
0	400980	274	112
0	402349	275	136
0	403845	276	143
0	405282	277	150
0	407013	278	172
0	408695	279	167
0	410513	280	182
0	411749	281	103
0	413459	282	163
0	414814	283	132
0	416279	284	152
0	417984	285	162
0	419163	286	106
0	420748	287	158
0	422124	288	123
0	423522	289	119
0	424776	290	106
0	426220	291	133
0	427424	292	117
0	428569	293	116
0	429785	294	117
0	431074	295	136
0	432474	296	121
0	433998	297	137
0	435561	298	174
0	437171	299	163
0	438551	300	120
0	439871	301	123
0	441251	302	127
0	442709	303	155
0	444313	304	163
0	445832	305	140
0	447058	306	103
0	448769	307	182
0	449984	308	106
0	451617	309	150
0	452772	310	107
0	453765	311	92
0	455216	312	132
0	456728	313	155
0	458289	314	162
0	459724	315	136
0	460823	316	106
0	462302	317	126
0	463817	318	156
0	465370	319	154
0	466771	320	135
0	468411	321	149
0	469671	322	117
0	470956	323	128
0	472632	324	165
0	473967	325	114
0	475359	326	149
0	476907	327	151
0	478319	328	123
0	479934	329	166
0	481180	330	118
0	482651	331	128
0	484172	332	146
0	485607	333	138
0	487079	334	141
0	488473	335	131
0	490318	336	174
0	491634	337	115
0	493186	338	147
0	494556	339	127
0	496094	340	136
0	497513	341	138
0	498974	342	144
0	500342	343	137
0	501456	344	99
0	502917	345	152
0	504360	346	132
0	505822	347	149
0	507084	348	125
0	508849	349	176
0	510140	350	109
0	511632	351	157
0	513031	352	136
0	514860	353	188
0	516112	354	119
0	517398	355	113
0	519241	356	180
0	520800	357	152
0	522282	358	145
0	523764	359	141
0	525093	360	131
0	526479	361	129
0	528112	362	178
0	529783	363	162
0	531118	364	114
0	532672	365	139
0	534258	366	159
0	535675	367	136
0	537028	368	122
0	538328	369	117
0	539599	370	119
0	541200	371	148
0	542673	372	138
0	544474	373	182
0	545941	374	142
0	547203	375	127
0	548464	376	124
0	550056	377	165
0	551741	378	168
0	553403	379	159
0	554692	380	105
0	555788	381	95
0	557185	382	124
0	558460	383	118
0	559769	384	124
0	561121	385	133
0	562617	386	145
0	564013	387	127
0	565733	388	195
0	567109	389	141
0	568433	390	128
0	569520	391	106
0	570872	392	129
0	572381	393	154
0	573890	394	146
0	575170	395	115
0	576641	396	136
0	578221	397	157
0	579557	398	127
0	581107	399	159
0	582636	400	151
0	584058	401	145
0	585648	402	161
0	587105	403	120
0	588622	404	162
0	589922	405	131
0	591531	406	148
0	593065	407	141
0	594475	408	139
0	596133	409	171
0	597719	410	156
0	599205	411	143
0	600684	412	138
0	602326	413	161
0	604023	414	172
0	605398	415	128
0	606858	416	147
0	608279	417	150
0	609768	418	150
0	611532	419	171
0	612627	420	99
0	613899	421	131
0	615014	422	92
0	616352	423	127
0	617734	424	127
0	619406	425	173
0	620542	426	109
0	621888	427	131
0	623393	428	166
0	625158	429	168
0	626757	430	155
0	627982	431	96
0	629327	432	114
0	630788	433	148
0	632055	434	112
0	633485	435	123
0	634822	436	128
0	636418	437	163
0	637843	438	126
0	639431	439	129
0	640987	440	134
0	642404	441	150
0	643818	442	131
0	645081	443	118
0	646330	444	120
0	647857	445	146
0	649227	446	131
0	650962	447	154
0	652417	448	138
0	653692	449	106
0	655259	450	157
0	656756	451	156
0	658069	452	130
0	659372	453	116
0	660559	454	110
0	661933	455	145
0	663326	456	124
0	665129	457	180
0	666675	458	167
0	668220	459	152
0	669757	460	147
0	671237	461	133
0	672709	462	149
0	674349	463	167
0	675849	464	123
0	677530	465	178
0	679161	466	156
0	680459	467	107
0	682158	468	166
0	683604	469	127
0	684839	470	103
0	686295	471	135
0	687538	472	116
0	689061	473	128
0	690587	474	145
0	691849	475	119
0	693231	476	127
0	694491	477	101
0	695839	478	145
0	696957	479	97
0	698406	480	147
0	700165	481	178
0	701645	482	155
0	702990	483	118
0	704244	484	125
0	705773	485	140
0	707549	486	203
0	709272	487	166
0	710890	488	155
0	712392	489	145
0	713631	490	121
0	714670	491	100
0	716163	492	148
0	717427	493	121
0	718815	494	145
0	720487	495	179
0	721925	496	133
0	723322	497	142
0	724884	498	145
0	726450	499	149
0	727787	500	129
0	729339	501	157
0	730640	502	120
0	732060	503	125
0	733765	504	176
0	735568	505	188
0	736999	506	132
0	738294	507	106
0	739573	508	102
0	741048	509	142
0	742559	510	137
0	744172	511	144
0	745638	512	153
0	747482	513	167
0	749009	514	140
0	750494	515	146
0	752233	516	146
0	753552	517	118
0	755072	518	143
0	756252	519	107
0	757659	520	133
0	758834	521	122
0	760147	522	116
0	761624	523	152
0	762880	524	121
0	764650	525	207
0	766158	526	141
0	767421	527	116
0	768930	528	154
0	770037	529	100
0	771530	530	141
0	772887	531	116
0	774122	532	110
0	775434	533	137
0	776728	534	135
0	778035	535	124
0	779494	536	140
0	780848	537	129
0	782199	538	122
0	783356	539	122
0	784763	540	111
0	786192	541	134
0	787816	542	177
0	789266	543	139
0	790553	544	114
0	791900	545	122
0	793342	546	143
0	794746	547	117
0	796122	548	125
0	797500	549	143
0	798872	550	120
0	800657	551	168
0	802299	552	175
0	803562	553	110
0	805011	554	124
0	806516	555	152
0	807946	556	141
0	809167	557	110
0	810487	558	139
0	811981	559	149
0	813459	560	146
0	814983	561	151
0	816224	562	126
0	817630	563	127
0	818993	564	134
0	820307	565	115
0	821940	566	156
0	823212	567	125
0	824434	568	103
0	825980	569	143
0	827331	570	133
0	828993	571	155
0	830584	572	170
0	831979	573	124
0	833810	574	196
0	835054	575	135
0	836275	576	114
0	837676	577	124
0	839235	578	154
0	840729	579	131
0	841933	580	112
0	843562	581	154
0	844850	582	123
0	846331	583	144
0	847816	584	134
0	849455	585	172
0	850989	586	131
0	852448	587	144
0	853550	588	93
0	855047	589	136
0	856484	590	143
0	858311	591	174
0	859667	592	129
0	860900	593	110
0	862565	594	178
0	864215	595	181
0	865672	596	138
0	867196	597	145
0	868656	598	135
0	869875	599	96
0	871511	600	144
0	873153	601	153
0	874619	602	145
0	876214	603	158
0	877767	604	144
0	879059	605	121
0	880252	606	118
0	881470	607	117
0	882925	608	138
0	884223	609	127
0	885432	610	111
0	886757	611	124
0	888121	612	133
0	889320	613	106
0	890792	614	151
0	892321	615	154
0	893740	616	136
0	895213	617	160
0	896867	618	157
0	898557	619	175
0	899932	620	137
0	901400	621	149
0	902905	622	140
0	904033	623	111
0	905958	624	202
0	907830	625	177
0	909576	626	167
0	911129	627	142
0	912471	628	141
0	914056	629	144
0	915260	630	108
0	916653	631	132
0	918007	632	117
0	919610	633	156
0	921001	634	142
0	922599	635	139
0	924138	636	148
0	925772	637	177
0	927337	638	152
0	928571	639	119
0	930126	640	169
0	931586	641	153
0	933424	642	175
0	934856	643	147
0	936411	644	150
0	937650	645	116
0	939238	646	149
0	940554	647	113
0	941825	648	122
0	943619	649	173
0	944995	650	138
0	946614	651	150
0	948147	652	148
0	949649	653	151
0	951273	654	157
0	952755	655	137
0	954151	656	135
0	955639	657	145
0	956950	658	130
0	958505	659	158
0	960215	660	166
0	961764	661	160
0	963224	662	135
0	964450	663	97
0	965765	664	130
0	966873	665	109
0	967783	666	99
0	969146	667	132
0	970441	668	128
0	971588	669	94
0	973053	670	141
0	974046	671	86
0	975581	672	156
0	977130	673	142
0	978715	674	168
0	979908	675	112
0	981583	676	158
0	983404	677	174
0	984793	678	130
0	986073	679	125
0	987476	680	143
0	988695	681	104
0	990014	682	122
0	991279	683	128
0	992806	684	134
0	994200	685	127
0	995475	686	102
0	997127	687	157
0	998429	688	119
0	999665	689	117
0	1001138	690	143
0	1002933	691	176
0	1004163	692	117
0	1005383	693	123
0	1007059	694	185
0	1008416	695	144
0	1009708	696	139
0	1011136	697	141
0	1012777	698	152
0	1014289	699	145
0	1015698	700	127
0	1017208	701	139
0	1018481	702	120
0	1019912	703	122
0	1021372	704	137
0	1022871	705	154
0	1024427	706	129
0	1025751	707	141
0	1027404	708	170
0	1029077	709	166
0	1030644	710	143
0	1032353	711	150
0	1033941	712	149
0	1035577	713	157
0	1037188	714	158
0	1038517	715	124
0	1039692	716	98
0	1041027	717	124
0	1042395	718	127
0	1043751	719	125
0	1045309	720	158
0	1047165	721	167
0	1048962	722	170
0	1050598	723	163
0	1052002	724	131
0	1053461	725	138
0	1055105	726	145
0	1056282	727	106
0	1057921	728	176
0	1059605	729	177
0	1061235	730	152
0	1062869	731	153
0	1064269	732	127
0	1065622	733	158
0	1067058	734	145
0	1068471	735	138
0	1069892	736	106
0	1071185	737	112
0	1072701	738	149
0	1074234	739	164
0	1075734	740	148
0	1077015	741	132
0	1078482	742	138
0	1079762	743	121
0	1081264	744	145
0	1082661	745	116
0	1084062	746	122
0	1085717	747	152
0	1087047	748	133
0	1088504	749	144
0	1090049	750	127
0	1091628	751	166
0	1093260	752	167
0	1094638	753	133
0	1096274	754	161
0	1097666	755	125
0	1099155	756	144
0	1100881	757	175
0	1102045	758	103
0	1103387	759	119
0	1104615	760	112
0	1105755	761	103
0	1107425	762	163
0	1108814	763	132
0	1110722	764	191
0	1112568	765	171
0	1114102	766	161
0	1115398	767	137
0	1116816	768	123
0	1118143	769	124
0	1119632	770	153
0	1120951	771	126
0	1122577	772	139
0	1123947	773	123
0	1125556	774	150
0	1126951	775	128
0	1128269	776	123
0	1129869	777	153
0	1131666	778	172
0	1133229	779	162
0	1134956	780	177
0	1136441	781	146
0	1137895	782	133
0	1139123	783	109
0	1140410	784	122
0	1141757	785	126
0	1143128	786	122
0	1144588	787	133
0	1145483	788	78
0	1146831	789	129
0	1148344	790	151
0	1149515	791	94
0	1150696	792	110
0	1152374	793	171
0	1154109	794	168
0	1155653	795	151
0	1157101	796	127
0	1158497	797	123
0	1159806	798	104
0	1161096	799	107
0	1162512	800	142
0	1163747	801	110
0	1165373	802	157
0	1167010	803	142
0	1168238	804	109
0	1169618	805	133
0	1171077	806	160
0	1172457	807	119
0	1174032	808	162
0	1175364	809	121
0	1176644	810	124
0	1178153	811	124
0	1179753	812	153
0	1181417	813	157
0	1182873	814	153
0	1184265	815	121
0	1185584	816	120
0	1186865	817	100
0	1188466	818	158
0	1190041	819	148
0	1191357	820	118
0	1193046	821	168
0	1194532	822	135
0	1196130	823	159
0	1197499	824	120
0	1198881	825	127
0	1200630	826	164
0	1202148	827	135
0	1203208	828	97
0	1204842	829	171
0	1206390	830	152
0	1207806	831	133
0	1209473	832	150
0	1210969	833	145
0	1212448	834	134
0	1214105	835	162
0	1215394	836	122
0	1216887	837	142
0	1218582	838	160
0	1220275	839	170
0	1221832	840	137
0	1223358	841	159
0	1224845	842	142
0	1226401	843	137
0	1228007	844	147
0	1229197	845	103
0	1230668	846	154
0	1232246	847	171
0	1233908	848	155
0	1235490	849	169
0	1236665	850	107
0	1238002	851	122
0	1239554	852	147
0	1240847	853	98
0	1242370	854	140
0	1243932	855	139
0	1245253	856	138
0	1246472	857	124
0	1247836	858	125
0	1249940	859	229
0	1251259	860	117
0	1252997	861	185
0	1254540	862	150
0	1255530	863	81
0	1257036	864	143
0	1258849	865	192
0	1260337	866	147
0	1261896	867	146
0	1263500	868	149
0	1264854	869	125
0	1266097	870	121
0	1267832	871	162
0	1269481	872	144
0	1271032	873	146
0	1272548	874	161
0	1273815	875	110
0	1275557	876	175
0	1277192	877	158
0	1278533	878	144
0	1279572	879	86
0	1280814	880	118
0	1282363	881	144
0	1283862	882	158
0	1285242	883	117
0	1286468	884	115
0	1288118	885	161
0	1289419	886	106
0	1290963	887	143
0	1292517	888	143
0	1294024	889	160
0	1295397	890	123
0	1297049	891	165
0	1298670	892	172
0	1300326	893	179
0	1301401	894	104
0	1302553	895	121
0	1303975	896	129
0	1305440	897	142
0	1306803	898	126
0	1308518	899	158
0	1310032	900	148
0	1311732	901	179
0	1312994	902	125
0	1314260	903	121
0	1315885	904	160
0	1317213	905	129
0	1318600	906	118
0	1320013	907	132
0	1321260	908	116
0	1322772	909	147
0	1323919	910	111
0	1325408	911	146
0	1326956	912	169
0	1328309	913	130
0	1329740	914	144
0	1330785	915	92
0	1332282	916	142
0	1333532	917	137
0	1335126	918	159
0	1336543	919	156
0	1338015	920	156
0	1339344	921	124
0	1340807	922	134
0	1342216	923	126
0	1343788	924	163
0	1345464	925	169
0	1347019	926	146
0	1348369	927	119
0	1349896	928	152
0	1351304	929	139
0	1352832	930	140
0	1354062	931	115
0	1355583	932	154
0	1356959	933	155
0	1358607	934	153
0	1359823	935	129
0	1361128	936	132
0	1362481	937	132
0	1363983	938	145
0	1365495	939	135
0	1366790	940	117
0	1367930	941	113
0	1369101	942	118
0	1370380	943	126
0	1371819	944	152
0	1373500	945	176
0	1375036	946	161
0	1376438	947	149
0	1377765	948	132
0	1379344	949	142
0	1381323	950	213
0	1382808	951	150
0	1384389	952	146
0	1386016	953	154
0	1387408	954	143
0	1388981	955	148
0	1390484	956	138
0	1391928	957	131
0	1393450	958	153
0	1395005	959	158
0	1396407	960	118
0	1397925	961	159
0	1399276	962	130
0	1400601	963	116
0	1401684	964	90
0	1403193	965	144
0	1404520	966	108
0	1405938	967	141
0	1407202	968	109
0	1408834	969	169
0	1410210	970	118
0	1411620	971	141
0	1413201	972	166
0	1414596	973	132
0	1416475	974	194
0	1417975	975	161
0	1419581	976	157
0	1420874	977	124
0	1422221	978	140
0	1423406	979	98
0	1424779	980	113
0	1426007	981	125
0	1427714	982	160
0	1429219	983	150
0	1430835	984	159
0	1432249	985	147
0	1433869	986	149
0	1435187	987	125
0	1436391	988	109
0	1437762	989	124
0	1439011	990	129
0	1440302	991	124
0	1441816	992	149
0	1443025	993	120
0	1444420	994	140
0	1446023	995	162
0	1447586	996	148
0	1449279	997	166
0	1450757	998	145
0	1452480	999	160
0	1453983	1000	155
0	1455429	1001	159
0	1456915	1002	125
0	1458161	1003	123
0	1459419	1004	113
0	1460492	1005	98
0	1461681	1006	122
0	1463043	1007	115
0	1464512	1008	144
0	1466353	1009	176
0	1467896	1010	151
0	1469513	1011	166
0	1471205	1012	155
0	1472712	1013	164
0	1474353	1014	160
0	1475978	1015	156
0	1477396	1016	131
0	1479092	1017	181
0	1480406	1018	123
0	1481640	1019	103
0	1483069	1020	151
0	1484387	1021	123
0	1485598	1022	108
0	1486975	1023	132
0	1488632	1024	170
0	1490085	1025	124
0	1491869	1026	175
0	1493450	1027	154
0	1494771	1028	124
0	1496459	1029	173
0	1498140	1030	161
0	1499415	1031	134
0	1501018	1032	180
0	1502474	1033	149
0	1503784	1034	113
0	1504952	1035	109
0	1506257	1036	122
0	1507631	1037	123
0	1509340	1038	176
0	1510746	1039	151
0	1512131	1040	127
0	1513382	1041	114
0	1514958	1042	165
0	1516313	1043	132
0	1517681	1044	125
0	1519139	1045	137
0	1520787	1046	149
0	1522323	1047	165
0	1523686	1048	134
0	1525371	1049	164
0	1527100	1050	189
0	1528772	1051	171
0	1530188	1052	141
0	1531352	1053	115
0	1532934	1054	165
0	1534327	1055	138
0	1536028	1056	150
0	1537527	1057	162
0	1538806	1058	122
0	1540199	1059	132
0	1541715	1060	168
0	1543073	1061	131
0	1544342	1062	124
0	1545636	1063	127
0	1547204	1064	143
0	1548977	1065	190
0	1550819	1066	167
0	1552224	1067	116
0	1553782	1068	141
0	1555192	1069	153
0	1556217	1070	95
0	1557540	1071	126
0	1558949	1072	136
0	1560314	1073	126
0	1561910	1074	143
0	1563261	1075	132
0	1564883	1076	155
0	1566585	1077	173
0	1567989	1078	141
0	1569632	1079	150
0	1571380	1080	182
0	1572599	1081	106
0	1573936	1082	122
0	1575583	1083	146
0	1577207	1084	169
0	1578394	1085	114
0	1579646	1086	121
0	1581004	1087	129
0	1582331	1088	132
0	1584054	1089	162
0	1585629	1090	153
0	1586951	1091	115
0	1588315	1092	133
0	1589489	1093	119
0	1590927	1094	141
0	1592130	1095	124
0	1593297	1096	118
0	1594721	1097	129
0	1596364	1098	182
0	1597903	1099	146
0	1599382	1100	151
0	1600664	1101	125
0	1602114	1102	127
0	1603654	1103	147
0	1605188	1104	137
0	1606699	1105	154
0	1608004	1106	108
0	1609459	1107	134
0	1611339	1108	181
0	1612890	1109	172
0	1614046	1110	106
0	1615373	1111	130
0	1616601	1112	105
0	1618276	1113	170
0	1619604	1114	109
0	1621008	1115	127
0	1622425	1116	126
0	1623693	1117	119
0	1624876	1118	108
0	1626116	1119	113
0	1627677	1120	155
0	1629109	1121	139
0	1630659	1122	165
0	1631841	1123	91
0	1633299	1124	151
0	1635063	1125	179
0	1636344	1126	114
0	1637917	1127	128
0	1639237	1128	125
0	1640682	1129	132
0	1641770	1130	98
0	1643135	1131	116
0	1644429	1132	131
0	1646077	1133	163
0	1647273	1134	113
0	1648785	1135	143
0	1650482	1136	166
0	1652014	1137	153
0	1653265	1138	134
0	1654886	1139	152
0	1656427	1140	159
0	1657630	1141	104
0	1659109	1142	152
0	1660708	1143	150
0	1662355	1144	158
0	1664000	1145	148
0	1665602	1146	159
0	1667090	1147	151
0	1668318	1148	125
0	1670062	1149	167
0	1671544	1150	138
0	1672572	1151	93
0	1674227	1152	146
0	1675354	1153	102
0	1676678	1154	131
0	1678361	1155	168
0	1680088	1156	148
0	1681496	1157	141
0	1682587	1158	84
0	1684176	1159	156
0	1685743	1160	153
0	1687110	1161	114
0	1688615	1162	140
0	1690085	1163	137
0	1691647	1164	141
0	1692836	1165	100
0	1694265	1166	120
0	1695929	1167	145
0	1697081	1168	117
0	1698658	1169	138
0	1700325	1170	183
0	1701547	1171	111
0	1703274	1172	178
0	1704646	1173	129
0	1706202	1174	161
0	1707522	1175	131
0	1708950	1176	139
0	1710715	1177	180
0	1712166	1178	134
0	1713220	1179	87
0	1714595	1180	139
0	1715958	1181	120
0	1717408	1182	127
0	1718886	1183	133
0	1720514	1184	155
0	1722154	1185	151
0	1723800	1186	157
0	1725579	1187	162
0	1726977	1188	135
0	1728217	1189	125
0	1729498	1190	123
0	1730881	1191	160
0	1732427	1192	137
0	1733819	1193	115
0	1735222	1194	132
0	1736851	1195	168
0	1738445	1196	167
0	1740234	1197	172
0	1741837	1198	138
0	1743384	1199	154
0	1744577	1200	107
0	1745768	1201	110
0	1747197	1202	140
0	1748535	1203	131
0	1750089	1204	139
0	1751500	1205	126
0	1753201	1206	188
0	1754691	1207	139
0	1756175	1208	149
0	1757623	1209	161
0	1759120	1210	123
0	1760375	1211	114
0	1761890	1212	156
0	1763432	1213	153
0	1765086	1214	153
0	1766661	1215	152
0	1768311	1216	143
0	1769421	1217	103
0	1770702	1218	116
0	1772362	1219	167
0	1773627	1220	143
0	1775098	1221	148
0	1776716	1222	171
0	1778078	1223	127
0	1779379	1224	112
0	1780839	1225	153
0	1782305	1226	145
0	1783975	1227	165
0	1785348	1228	148
0	1786942	1229	163
0	1788244	1230	118
0	1789805	1231	172
0	1791103	1232	119
0	1792446	1233	140
0	1793866	1234	137
0	1795334	1235	139
0	1796790	1236	137
0	1798220	1237	127
0	1799598	1238	127
0	1800742	1239	109
0	1802178	1240	120
0	1803545	1241	134
0	1804887	1242	141
0	1806264	1243	118
0	1807695	1244	130
0	1809196	1245	146
0	1810621	1246	150
0	1812136	1247	118
0	1813719	1248	146
0	1815192	1249	136
0	1816632	1250	144
0	1818251	1251	140
0	1819565	1252	137
0	1821214	1253	166
0	1822991	1254	170
0	1824306	1255	110
0	1825851	1256	138
0	1827472	1257	136
0	1828640	1258	97
0	1829846	1259	101
0	1831237	1260	135
0	1832864	1261	154
0	1834391	1262	136
0	1835738	1263	112
0	1837168	1264	143
0	1838551	1265	150
0	1840076	1266	142
0	1841629	1267	152
0	1842717	1268	109
0	1844627	1269	191
0	1845918	1270	107
0	1847574	1271	155
0	1849206	1272	153
0	1850869	1273	178
0	1852228	1274	138
0	1854020	1275	169
0	1855545	1276	160
0	1857006	1277	120
0	1858329	1278	130
0	1859899	1279	145
0	1861506	1280	165
0	1863039	1281	154
0	1864761	1282	171
0	1866421	1283	173
0	1867795	1284	125
0	1868842	1285	96
0	1870472	1286	159
0	1872011	1287	148
0	1873472	1288	136
0	1874729	1289	114
0	1876363	1290	152
0	1877727	1291	123
0	1879146	1292	124
0	1880875	1293	162
0	1882193	1294	127
0	1883694	1295	154
0	1885387	1296	174
0	1886923	1297	149
0	1888573	1298	163
0	1890110	1299	150
0	1891350	1300	116
0	1893042	1301	143
0	1895042	1302	207
0	1896262	1303	107
0	1897492	1304	101
0	1898709	1305	118
0	1900355	1306	157
0	1901949	1307	153
0	1903369	1308	135
0	1904740	1309	136
0	1906410	1310	160
0	1908067	1311	154
0	1909490	1312	138
0	1910791	1313	120
0	1912204	1314	140
0	1913722	1315	149
0	1914845	1316	114
0	1916443	1317	161
0	1917699	1318	137
0	1919054	1319	138
0	1920566	1320	148
0	1921962	1321	131
0	1923256	1322	133
0	1924797	1323	136
0	1926611	1324	193
0	1928557	1325	175
0	1929945	1326	141
0	1931028	1327	100
0	1932467	1328	132
0	1933731	1329	131
0	1935267	1330	148
0	1936767	1331	155
0	1938489	1332	169
0	1939998	1333	152
0	1941374	1334	117
0	1942829	1335	136
0	1944620	1336	172
0	1946270	1337	157
0	1947687	1338	138
0	1949050	1339	126
0	1950921	1340	189
0	1952326	1341	138
0	1954021	1342	176
0	1955552	1343	140
0	1957091	1344	166
0	1958925	1345	189
0	1960224	1346	118
0	1961799	1347	166
0	1963205	1348	133
0	1964636	1349	134
0	1966024	1350	132
0	1967293	1351	130
0	1968435	1352	101
0	1969955	1353	145
0	1971385	1354	139
0	1973033	1355	165
0	1974637	1356	169
0	1975907	1357	137
0	1977161	1358	135
0	1978309	1359	101
0	1980020	1360	177
0	1981754	1361	171
0	1982848	1362	123
0	1984520	1363	173
0	1986030	1364	137
0	1987668	1365	143
0	1988978	1366	133
0	1990391	1367	134
0	1991966	1368	148
0	1993330	1369	123
0	1994965	1370	153
0	1996246	1371	114
0	1997653	1372	150
0	1998795	1373	101
0	2000033	1374	117
0	2001411	1375	139
0	2002752	1376	134
0	2003858	1377	107
0	2005147	1378	114
0	2006375	1379	117
0	2008338	1380	193
0	2009732	1381	135
0	2011603	1382	192
0	2013404	1383	162
0	2015137	1384	144
0	2016810	1385	184
0	2018356	1386	143
0	2019676	1387	133
0	2021136	1388	151
0	2022466	1389	127
0	2023821	1390	117
0	2025168	1391	122
0	2026796	1392	163
0	2028234	1393	145
0	2029650	1394	145
0	2031187	1395	132
0	2032823	1396	163
0	2034529	1397	181
0	2036004	1398	154
0	2037581	1399	140
0	2038916	1400	123
0	2040389	1401	140
0	2041924	1402	150
0	2043530	1403	163
0	2044671	1404	100
0	2045863	1405	111
0	2047222	1406	124
0	2048639	1407	138
0	2050174	1408	154
0	2051900	1409	161
0	2053361	1410	131
0	2054785	1411	139
0	2056532	1412	176
0	2058266	1413	165
0	2059894	1414	167
0	2061767	1415	188
0	2063163	1416	109
0	2064797	1417	155
0	2066353	1418	155
0	2067664	1419	124
0	2069361	1420	171
0	2070771	1421	147
0	2072220	1422	140
0	2073728	1423	135
0	2075237	1424	148
0	2076786	1425	130
0	2078224	1426	135
0	2079569	1427	120
0	2080705	1428	99
0	2082137	1429	145
0	2083597	1430	160
0	2085019	1431	129
0	2086529	1432	145
0	2088104	1433	176
0	2089647	1434	154
0	2091037	1435	103
0	2092496	1436	126
0	2093753	1437	108
0	2094880	1438	94
0	2096398	1439	143
0	2097996	1440	160
0	2099797	1441	168
0	2101285	1442	123
0	2102883	1443	153
0	2104319	1444	143
0	2105573	1445	119
0	2107010	1446	124
0	2108603	1447	146
0	2109984	1448	144
0	2111298	1449	109
0	2112632	1450	122
0	2113905	1451	112
0	2115600	1452	146
0	2117053	1453	136
0	2118528	1454	128
0	2120202	1455	171
0	2121751	1456	132
0	2123107	1457	141
0	2124576	1458	150
0	2125912	1459	135
0	2127286	1460	144
0	2128961	1461	158
0	2130395	1462	145
0	2131737	1463	117
0	2133435	1464	171
0	2134511	1465	85
0	2135951	1466	161
0	2137159	1467	109
0	2138907	1468	189
0	2140045	1469	115
0	2141669	1470	156
0	2143356	1471	162
0	2144640	1472	121
0	2145963	1473	126
0	2147357	1474	119
0	2148800	1475	140
0	2150356	1476	135
0	2151984	1477	159
0	2153526	1478	157
0	2154996	1479	127
0	2156410	1480	134
0	2158003	1481	162
0	2159328	1482	120
0	2160527	1483	114
0	2161997	1484	141
0	2163275	1485	141
0	2164594	1486	118
0	2166172	1487	159
0	2167467	1488	128
0	2168780	1489	116
0	2170100	1490	136
0	2171379	1491	134
0	2172658	1492	112
0	2174134	1493	121
0	2175644	1494	143
0	2177212	1495	151
0	2178527	1496	122
0	2179776	1497	120
0	2181500	1498	201
0	2182950	1499	141
0	2184176	1500	132
0	2185851	1501	174
0	2186994	1502	96
0	2188548	1503	149
0	2190151	1504	166
0	2191442	1505	134
0	2192730	1506	105
0	2194253	1507	158
0	2195951	1508	149
0	2197534	1509	140
0	2198704	1510	110
0	2200171	1511	130
0	2201509	1512	133
0	2203019	1513	147
0	2204514	1514	158
0	2205910	1515	133
0	2207153	1516	126
0	2208563	1517	137
0	2209745	1518	123
0	2210876	1519	114
0	2212293	1520	115
0	2214057	1521	169
0	2215487	1522	127
0	2216866	1523	146
0	2218444	1524	149
0	2220328	1525	169
0	2221984	1526	167
0	2223307	1527	110
0	2224622	1528	106
0	2226090	1529	149
0	2227653	1530	141
0	2228994	1531	128
0	2230317	1532	122
0	2231634	1533	116
0	2232855	1534	110
0	2234051	1535	107
0	2235188	1536	112
0	2236963	1537	178
0	2238695	1538	189
0	2240247	1539	157
0	2241999	1540	156
0	2243884	1541	214
0	2245421	1542	136
0	2246911	1543	147
0	2248322	1544	134
0	2250036	1545	169
0	2251390	1546	131
0	2253039	1547	176
0	2254502	1548	136
0	2256251	1549	198
0	2257797	1550	138
0	2259399	1551	151
0	2260902	1552	140
0	2262464	1553	155
0	2263792	1554	127
0	2265014	1555	119
0	2266578	1556	161
0	2267728	1557	113
0	2269123	1558	152
0	2270475	1559	121
0	2272115	1560	150
0	2273810	1561	172
0	2275306	1562	159
0	2277017	1563	164
0	2278332	1564	106
0	2279471	1565	106
0	2280713	1566	117
0	2282353	1567	167
0	2283638	1568	124
0	2285315	1569	170
0	2286721	1570	136
0	2288454	1571	160
0	2289694	1572	111
0	2290984	1573	117
0	2292515	1574	160
0	2293974	1575	150
0	2294985	1576	90
0	2296257	1577	127
0	2297746	1578	152
0	2299024	1579	123
0	2300265	1580	101
0	2301605	1581	127
0	2302787	1582	103
0	2304273	1583	147
0	2305593	1584	135
0	2307181	1585	143
0	2308636	1586	144
0	2310011	1587	120
0	2311183	1588	89
0	2312450	1589	126
0	2313651	1590	107
0	2314963	1591	105
0	2316437	1592	119
0	2317822	1593	136
0	2319412	1594	139
0	2320784	1595	133
0	2322198	1596	141
0	2323666	1597	139
0	2325158	1598	139
0	2327027	1599	168
0	2328413	1600	132
0	2329876	1601	128
0	2331352	1602	123
0	2332960	1603	165
0	2334261	1604	110
0	2335576	1605	132
0	2337212	1606	157
0	2338456	1607	129
0	2340131	1608	178
0	2341789	1609	155
0	2343198	1610	143
0	2344702	1611	167
0	2346251	1612	150
0	2347738	1613	126
0	2349501	1614	194