version 3
run SimulationTime-30-20240108-13:19:41-6532
attr configname SimulationTime
attr datetime 20240108-13:19:41
attr datetimef 20240108-131941
attr experiment SimulationTime
attr inifile omnetpp.ini
attr iterationvars ""
attr iterationvarsd ""
attr iterationvarsf ""
attr measurement ""
attr network System
attr processid 6532
attr repetition 30
attr replication #30
attr resultdir results
attr runnumber 30
attr seedset 30
config **.cpu.rate 1000
config **.hd.rateProcessing 250
config **.webServer.web_server_rate 100
config **.p1 0.35
config **.p2 0.40
config network System
config num-rngs 4
config **.cpu.rng-0 0
config **.cpu.rng-1 1
config **.hd.rng-0 2
config **.webServer.rng-0 3
config repeat 500
config seed-set 30
config sim-time-limit 10000s
config **.client.numClients 40

vector 0 System.server.cpu requestCounterStat:vector ETV
attr recordingmode vector
attr source requestCounter
vector 1 System.server.hd utilizationHdStat:vector ETV
attr recordingmode vector
attr source utilizationHd
vector 2 System.server.cpu utilizationCpuStat:vector ETV
attr recordingmode vector
attr source utilizationCpu
vector 3 System.webServer utilizationWsStat:vector ETV
attr recordingmode vector
attr source utilizationWs
0	2150	1	207
0	3795	2	168
0	5133	3	123
0	6756	4	160
0	8229	5	150
0	9539	6	115
0	10941	7	119
0	12674	8	186
0	14381	9	164
0	15718	10	151
0	17046	11	119
0	18452	12	135
0	19708	13	127
0	20879	14	100
0	22298	15	126
0	23642	16	119
0	24986	17	113
0	26242	18	121
0	27917	19	182
0	29326	20	127
0	30959	21	166
0	32363	22	123
0	33615	23	113
0	35301	24	159
0	36485	25	113
0	37896	26	134
0	39372	27	145
0	40639	28	122
0	41962	29	134
0	43704	30	158
0	45093	31	132
0	46456	32	122
0	48167	33	184
0	49516	34	126
0	50734	35	119
0	52318	36	157
0	53417	37	110
0	54563	38	101
0	55930	39	126
0	57315	40	125
0	58591	41	127
0	60435	42	187
0	61802	43	116
0	62806	44	91
0	64368	45	133
0	66013	46	162
0	67341	47	135
0	68850	48	150
0	70359	49	148
0	72038	50	155
0	73258	51	113
0	74640	52	121
0	76524	53	181
0	77838	54	121
0	79445	55	146
0	80587	56	105
0	82239	57	169
0	83432	58	114
0	84737	59	110
0	86209	60	144
0	87632	61	138
0	89266	62	161
0	90733	63	150
0	92516	64	166
0	93942	65	155
0	95385	66	136
0	96746	67	120
0	98349	68	178
0	99870	69	136
0	101268	70	126
0	102727	71	118
0	104341	72	135
0	105614	73	106
0	107138	74	143
0	108854	75	155
0	110556	76	141
0	111827	77	122
0	113112	78	136
0	114568	79	123
0	116381	80	179
0	117887	81	161
0	119393	82	141
0	120743	83	125
0	121945	84	119
0	123285	85	113
0	124754	86	144
0	126426	87	149
0	128090	88	149
0	129527	89	144
0	130711	90	116
0	132260	91	152
0	133771	92	126
0	135490	93	168
0	137042	94	177
0	138492	95	141
0	139639	96	100
0	140897	97	117
0	142128	98	122
0	143545	99	150
0	144855	100	108
0	146296	101	148
0	147865	102	140
0	149312	103	134
0	150684	104	117
0	152180	105	163
0	153468	106	115
0	155049	107	164
0	156646	108	148
0	157948	109	115
0	159382	110	138
0	161257	111	194
0	162543	112	111
0	164289	113	173
0	165717	114	119
0	167050	115	128
0	168701	116	130
0	170157	117	153
0	171612	118	150
0	173096	119	141
0	174374	120	114
0	176341	121	206
0	177539	122	107
0	179127	123	161
0	180589	124	155
0	182041	125	133
0	183565	126	143
0	185026	127	126
0	186566	128	143
0	188180	129	163
0	189576	130	128
0	191335	131	172
0	192744	132	148
0	194345	133	156
0	196126	134	148
0	197347	135	98
0	198812	136	142
0	200476	137	165
0	201900	138	145
0	203366	139	143
0	204688	140	122
0	205934	141	101
0	207618	142	167
0	209097	143	126
0	210596	144	148
0	212220	145	143
0	213726	146	153
0	214813	147	104
0	216435	148	171
0	218526	149	216
0	220115	150	159
0	221505	151	115
0	223161	152	163
0	224427	153	129
0	225809	154	115
0	227138	155	118
0	228554	156	129
0	230269	157	166
0	231635	158	123
0	232839	159	115
0	234606	160	163
0	236130	161	149
0	237644	162	145
0	238923	163	120
0	240496	164	144
0	242090	165	147
0	243480	166	129
0	245077	167	148
0	246705	168	155
0	248021	169	125
0	249409	170	108
0	250849	171	137
0	252355	172	143
0	253702	173	140
0	254951	174	116
0	256469	175	163
0	258207	176	189
0	259576	177	134
0	260939	178	132
0	262558	179	150
0	263939	180	139
0	265645	181	159
0	267199	182	159
0	268572	183	128
0	270067	184	146
0	271624	185	164
0	272875	186	118
0	274134	187	122
0	275864	188	167
0	277553	189	152
0	278991	190	124
0	280589	191	167
0	281763	192	115
0	283158	193	140
0	284535	194	128
0	286211	195	189
0	287960	196	172
0	289736	197	165
0	291257	198	152
0	292599	199	127
0	293917	200	126
0	295335	201	127
0	296757	202	127
0	298133	203	129
0	299498	204	138
0	300952	205	149
0	302441	206	140
0	304089	207	177
0	305824	208	172
0	307188	209	123
0	308725	210	133
0	310149	211	131
0	311463	212	127
0	313169	213	151
0	314678	214	132
0	316258	215	157
0	317651	216	136
0	319089	217	147
0	320548	218	134
0	322186	219	159
0	323963	220	175
0	325575	221	133
0	326662	222	102
0	327844	223	115
0	329022	224	93
0	330356	225	137
0	331978	226	157
0	333212	227	109
0	334628	228	131
0	336554	229	187
0	338233	230	179
0	339460	231	110
0	340561	232	104
0	341883	233	129
0	343435	234	155
0	344905	235	147
0	346478	236	156
0	348290	237	175
0	349736	238	159
0	351202	239	149
0	352502	240	120
0	353947	241	136
0	355864	242	200
0	357822	243	179
0	359370	244	137
0	360853	245	138
0	362365	246	153
0	363991	247	173
0	365552	248	142
0	367303	249	174
0	368943	250	154
0	370625	251	167
0	371931	252	131
0	373368	253	126
0	374548	254	117
0	376110	255	165
0	377388	256	129
0	378800	257	135
0	380398	258	165
0	381764	259	123
0	383154	260	114
0	384653	261	156
0	386255	262	161
0	387805	263	157
0	389072	264	132
0	390363	265	108
0	392034	266	176
0	393370	267	129
0	394709	268	124
0	395913	269	115
0	397369	270	136
0	399117	271	173
0	400559	272	133
0	401949	273	141
0	403227	274	131
0	404657	275	147
0	406236	276	176
0	407540	277	135
0	408862	278	115
0	409987	279	100
0	411528	280	147
0	412912	281	135
0	414306	282	127
0	415643	283	134
0	417139	284	133
0	418612	285	150
0	420228	286	179
0	421762	287	139
0	423324	288	139
0	424503	289	128
0	425611	290	88
0	427085	291	129
0	428471	292	143
0	429799	293	131
0	431221	294	137
0	432579	295	139
0	433953	296	107
0	435375	297	133
0	436928	298	142
0	438360	299	145
0	439278	300	70
0	440679	301	144
0	441967	302	101
0	443354	303	130
0	444716	304	127
0	445914	305	115
0	447440	306	145
0	448935	307	132
0	450310	308	120
0	451776	309	137
0	453162	310	130
0	454589	311	146
0	456001	312	125
0	457563	313	147
0	459082	314	150
0	460405	315	136
0	461726	316	116
0	463293	317	160
0	465076	318	170
0	466528	319	137
0	468111	320	161
0	469652	321	160
0	471257	322	148
0	472747	323	145
0	474121	324	133
0	475670	325	144
0	477060	326	157
0	478521	327	134
0	479880	328	134
0	481240	329	131
0	482826	330	154
0	484311	331	134
0	485717	332	131
0	487074	333	116
0	488327	334	128
0	489246	335	66
0	491018	336	181
0	492482	337	153
0	493821	338	140
0	495210	339	126
0	496506	340	118
0	497987	341	140
0	499614	342	168
0	500988	343	113
0	502243	344	128
0	503529	345	119
0	505000	346	114
0	506247	347	122
0	507753	348	131
0	509030	349	118
0	510293	350	127
0	511842	351	144
0	513117	352	118
0	514559	353	133
0	516021	354	121
0	517582	355	148
0	519024	356	147
0	520304	357	121
0	522028	358	173
0	523317	359	136
0	525123	360	182
0	526332	361	118
0	527570	362	121
0	529226	363	149
0	531002	364	149
0	532286	365	123
0	533957	366	162
0	535181	367	115
0	536368	368	118
0	537640	369	153
0	539328	370	156
0	541173	371	194
0	543027	372	165
0	544663	373	173
0	546272	374	148
0	547678	375	139
0	549032	376	113
0	550570	377	149
0	552372	378	179
0	553881	379	140
0	555360	380	137
0	556969	381	148
0	558456	382	134
0	559877	383	136
0	561326	384	156
0	562790	385	129
0	564461	386	178
0	565917	387	137
0	567385	388	147
0	569280	389	208
0	570333	390	103
0	571850	391	142
0	573181	392	132
0	575036	393	168
0	576666	394	169
0	578159	395	136
0	579554	396	158
0	580989	397	144
0	582462	398	136
0	583867	399	134
0	585494	400	161
0	586570	401	105
0	588069	402	154
0	589370	403	116
0	590819	404	156
0	592297	405	137
0	593738	406	148
0	595091	407	118
0	596780	408	150
0	598053	409	120
0	599613	410	142
0	601074	411	142
0	602535	412	130
0	604078	413	166
0	605538	414	129
0	607004	415	127
0	608717	416	180
0	610526	417	174
0	611889	418	120
0	613346	419	136
0	614550	420	120
0	615984	421	147
0	617499	422	154
0	619142	423	178
0	620544	424	127
0	621963	425	134
0	623202	426	124
0	624543	427	130
0	626152	428	164
0	627367	429	118
0	628762	430	141
0	630052	431	131
0	631358	432	105
0	632893	433	152
0	634374	434	148
0	635844	435	149
0	637724	436	179
0	639263	437	154
0	640893	438	155
0	642400	439	146
0	643999	440	153
0	645754	441	154
0	647522	442	185
0	649103	443	180
0	650690	444	130
0	652257	445	154
0	653528	446	120
0	655044	447	161
0	656443	448	128
0	658072	449	168
0	659480	450	136
0	660854	451	123
0	662142	452	129
0	663598	453	153
0	664856	454	111
0	666254	455	123
0	667641	456	120
0	669328	457	164
0	670712	458	137
0	672156	459	141
0	673831	460	161
0	675175	461	119
0	676675	462	151
0	678283	463	141
0	679566	464	122
0	680931	465	132
0	682428	466	142
0	683739	467	120
0	684980	468	106
0	686195	469	124
0	687813	470	170
0	689135	471	125
0	690678	472	150
0	692263	473	174
0	693635	474	129
0	695031	475	117
0	696207	476	101
0	697359	477	93
0	699053	478	163
0	700382	479	140
0	701811	480	147
0	703373	481	147
0	704807	482	151
0	706361	483	139
0	708007	484	165
0	709376	485	124
0	710885	486	142
0	712347	487	135
0	713724	488	136
0	715159	489	146
0	716830	490	185
0	718145	491	108
0	719493	492	137
0	720807	493	117
0	722493	494	175
0	724120	495	172
0	725800	496	167
0	727220	497	133
0	728711	498	150
0	730576	499	184
0	732108	500	146
0	733576	501	139
0	735176	502	153
0	737088	503	177
0	738661	504	148
0	739973	505	135
0	741110	506	102
0	742706	507	143
0	744343	508	158
0	745696	509	144
0	747290	510	170
0	748810	511	145
0	750096	512	109
0	751528	513	123
0	753016	514	139
0	754445	515	126
0	755982	516	150
0	757762	517	155
0	759775	518	212
0	760992	519	120
0	762346	520	134
0	763876	521	137
0	765295	522	128
0	767264	523	196
0	768727	524	148
0	770086	525	132
0	771453	526	134
0	773312	527	184
0	774680	528	125
0	775810	529	101
0	777276	530	162
0	778590	531	127
0	779753	532	94
0	781038	533	124
0	782550	534	139
0	784069	535	130
0	785272	536	130
0	786691	537	154
0	788265	538	157
0	790086	539	176
0	791708	540	160
0	793332	541	167
0	794876	542	127
0	796169	543	126
0	797781	544	149
0	798986	545	110
0	800342	546	131
0	801909	547	154
0	803577	548	173
0	804954	549	124
0	806365	550	137
0	807830	551	136
0	809266	552	123
0	811176	553	191
0	812500	554	131
0	813977	555	128
0	815332	556	112
0	816926	557	141
0	818611	558	168
0	820092	559	136
0	821732	560	168
0	823340	561	167
0	824879	562	144
0	826317	563	145
0	827974	564	134
0	829633	565	160
0	830850	566	114
0	832372	567	139
0	833642	568	115
0	834896	569	111
0	836138	570	106
0	837550	571	141
0	839130	572	157
0	840668	573	147
0	841849	574	118
0	843143	575	109
0	844853	576	149
0	846424	577	140
0	847959	578	134
0	849484	579	142
0	851299	580	133
0	852776	581	132
0	854144	582	123
0	855720	583	153
0	857497	584	164
0	859131	585	157
0	860771	586	159
0	862190	587	118
0	863946	588	175
0	865424	589	127
0	866709	590	127
0	868289	591	151
0	869329	592	93
0	870831	593	145
0	872239	594	135
0	873805	595	147
0	875304	596	138
0	876675	597	134
0	878139	598	141
0	879353	599	109
0	880763	600	116
0	882367	601	167
0	883684	602	120
0	884983	603	126
0	886325	604	127
0	887961	605	157
0	889494	606	136
0	890832	607	129
0	892278	608	149
0	893846	609	143
0	895033	610	113
0	896200	611	116
0	897595	612	126
0	898937	613	137
0	900382	614	136
0	901648	615	127
0	903066	616	147
0	904804	617	167
0	906374	618	153
0	907808	619	141
0	909279	620	149
0	910442	621	118
0	911740	622	121
0	913194	623	149
0	914698	624	161
0	916274	625	159
0	917515	626	118
0	919107	627	133
0	920158	628	90
0	921442	629	133
0	922742	630	132
0	923994	631	133
0	925302	632	133
0	926698	633	133
0	928027	634	132
0	929471	635	125
0	930838	636	138
0	932249	637	126
0	933913	638	161
0	935416	639	142
0	936817	640	143
0	938366	641	172
0	939643	642	122
0	941036	643	132
0	942526	644	137
0	944012	645	139
0	945553	646	150
0	947032	647	148
0	948626	648	137
0	949948	649	129
0	951385	650	127
0	953127	651	167
0	954618	652	156
0	956190	653	143
0	958064	654	205
0	959689	655	162
0	961314	656	176
0	962945	657	150
0	964338	658	134
0	965655	659	126
0	966909	660	118
0	968072	661	118
0	969547	662	162
0	970903	663	141
0	972350	664	134
0	973972	665	159
0	975443	666	138
0	976821	667	129
0	978782	668	166
0	980064	669	143
0	981438	670	120
0	982845	671	156
0	984411	672	163
0	985891	673	131
0	987721	674	173
0	989310	675	128
0	990503	676	112
0	992220	677	182
0	994086	678	169
0	995369	679	110
0	996793	680	124
0	998347	681	145
0	1000015	682	169
0	1001696	683	174
0	1002876	684	115
0	1004445	685	166
0	1006003	686	153
0	1007695	687	167
0	1009059	688	125
0	1010505	689	147
0	1012121	690	160
0	1013364	691	118
0	1015142	692	163
0	1016546	693	117
0	1017669	694	100
0	1019171	695	153
0	1020688	696	140
0	1022096	697	133
0	1023363	698	114
0	1025111	699	173
0	1026955	700	180
0	1028776	701	174
0	1030234	702	129
0	1031780	703	151
0	1033095	704	122
0	1034637	705	153
0	1035680	706	104
0	1036930	707	123
0	1038048	708	111
0	1039298	709	107
0	1040848	710	148
0	1042481	711	158
0	1043821	712	133
0	1045400	713	150
0	1046488	714	97
0	1047796	715	113
0	1049529	716	166
0	1051070	717	128
0	1052647	718	150
0	1054113	719	119
0	1055522	720	133
0	1056900	721	133
0	1058340	722	125
0	1059653	723	136
0	1060860	724	118
0	1062257	725	136
0	1063713	726	135
0	1065131	727	153
0	1066587	728	123
0	1068058	729	142
0	1069418	730	136
0	1070588	731	85
0	1071985	732	130
0	1073639	733	161
0	1075141	734	159
0	1076837	735	161
0	1078295	736	139
0	1079474	737	100
0	1081040	738	153
0	1082197	739	96
0	1083798	740	141
0	1085625	741	172
0	1087187	742	161
0	1088422	743	110
0	1089782	744	135
0	1091056	745	115
0	1092429	746	128
0	1093385	747	79
0	1094791	748	133
0	1096142	749	120
0	1097365	750	117
0	1098862	751	150
0	1100479	752	152
0	1102064	753	158
0	1103564	754	151
0	1104978	755	139
0	1106563	756	146
0	1108014	757	132
0	1109689	758	182
0	1111139	759	139
0	1112582	760	129
0	1113917	761	138
0	1115290	762	126
0	1116641	763	124
0	1117735	764	103
0	1119175	765	127
0	1120742	766	144
0	1122159	767	144
0	1123175	768	93
0	1124496	769	140
0	1125952	770	140
0	1127538	771	167
0	1129110	772	167
0	1130882	773	183
0	1132591	774	140
0	1134251	775	133
0	1135693	776	147
0	1137082	777	148
0	1138635	778	152
0	1140171	779	163
0	1141749	780	140
0	1143377	781	145
0	1144788	782	132
0	1146278	783	133
0	1147795	784	136
0	1149197	785	119
0	1150430	786	108
0	1152142	787	169
0	1153367	788	112
0	1154594	789	110
0	1156078	790	152
0	1157959	791	184
0	1159618	792	182
0	1161081	793	142
0	1162537	794	115
0	1164209	795	167
0	1165753	796	131
0	1167250	797	136
0	1168572	798	133
0	1170039	799	148
0	1171502	800	151
0	1173118	801	155
0	1174413	802	136
0	1175549	803	85
0	1177224	804	172
0	1178571	805	128
0	1179987	806	145
0	1181401	807	139
0	1183089	808	173
0	1184760	809	154
0	1186166	810	118
0	1187474	811	119
0	1188713	812	124
0	1189991	813	131
0	1191103	814	101
0	1192522	815	126
0	1193937	816	130
0	1195484	817	154
0	1196790	818	123
0	1198312	819	151
0	1199848	820	136
0	1201149	821	128
0	1202505	822	117
0	1203969	823	153
0	1205360	824	118
0	1206857	825	138
0	1208608	826	172
0	1209847	827	106
0	1211264	828	140
0	1212715	829	122
0	1213797	830	90
0	1215421	831	161
0	1217196	832	174
0	1218711	833	146
0	1220178	834	154
0	1221670	835	145
0	1222902	836	113
0	1224333	837	138
0	1225658	838	124
0	1227057	839	134
0	1228709	840	162
0	1230258	841	150
0	1231781	842	154
0	1233210	843	136
0	1234525	844	136
0	1236199	845	159
0	1237603	846	127
0	1238867	847	121
0	1239926	848	100
0	1241193	849	108
0	1242503	850	118
0	1243695	851	113
0	1245157	852	143
0	1246663	853	135
0	1248188	854	152
0	1249372	855	107
0	1251025	856	146
0	1252511	857	167
0	1253922	858	138
0	1255433	859	148
0	1256685	860	118
0	1258091	861	155
0	1259489	862	121
0	1260670	863	106
0	1262133	864	136
0	1263566	865	126
0	1265057	866	146
0	1266230	867	116
0	1267901	868	168
0	1269152	869	126
0	1270656	870	140
0	1272136	871	177
0	1273973	872	174
0	1275229	873	109
0	1276759	874	121
0	1278158	875	136
0	1279436	876	109
0	1280700	877	111
0	1282110	878	129
0	1283820	879	171
0	1285418	880	156
0	1286828	881	139
0	1287908	882	85
0	1289688	883	173
0	1291036	884	133
0	1292448	885	131
0	1293925	886	146
0	1295432	887	158
0	1296976	888	141
0	1298250	889	113
0	1299698	890	134
0	1300988	891	127
0	1302318	892	107
0	1303799	893	124
0	1305040	894	118
0	1306368	895	123
0	1307749	896	144
0	1309325	897	141
0	1310549	898	131
0	1311766	899	108
0	1313185	900	117
0	1314406	901	106
0	1315487	902	96
0	1317012	903	142
0	1318729	904	166
0	1319743	905	87
0	1321214	906	134
0	1322795	907	168
0	1324290	908	150
0	1325695	909	128
0	1327403	910	168
0	1328910	911	142
0	1330392	912	145
0	1331578	913	117
0	1332970	914	149
0	1334194	915	109
0	1335389	916	116
0	1336948	917	168
0	1338282	918	131
0	1339894	919	151
0	1341534	920	158
0	1342727	921	116
0	1344173	922	131
0	1345816	923	142
0	1346998	924	107
0	1348179	925	106
0	1349458	926	128
0	1351041	927	150
0	1352280	928	106
0	1353796	929	153
0	1355292	930	140
0	1357040	931	171
0	1358660	932	155
0	1360280	933	161
0	1361671	934	130
0	1363074	935	138
0	1364400	936	123
0	1366059	937	162
0	1367466	938	146
0	1368909	939	134
0	1370173	940	120
0	1371350	941	128
0	1373004	942	151
0	1374583	943	166
0	1376270	944	170
0	1377897	945	162
0	1379341	946	139
0	1380731	947	119
0	1382092	948	110
0	1383374	949	131
0	1384684	950	114
0	1386170	951	145
0	1387681	952	152
0	1389203	953	155
0	1390789	954	173
0	1392081	955	103
0	1393656	956	158
0	1395270	957	161
0	1396721	958	128
0	1398155	959	135
0	1399660	960	155
0	1401353	961	168
0	1402612	962	110
0	1403949	963	146
0	1405275	964	115
0	1406577	965	127
0	1407981	966	127
0	1409706	967	172
0	1411172	968	131
0	1412558	969	119
0	1413986	970	124
0	1415429	971	154
0	1416875	972	145
0	1418483	973	169
0	1419870	974	124
0	1421094	975	109
0	1422477	976	132
0	1423924	977	130
0	1425491	978	156
0	1426856	979	128
0	1428508	980	160
0	1429907	981	140
0	1431597	982	175
0	1433178	983	164
0	1434959	984	182
0	1436385	985	141
0	1438094	986	162
0	1439778	987	149
0	1441494	988	157
0	1442826	989	111
0	1443980	990	86
0	1445421	991	124
0	1446794	992	130
0	1448165	993	138
0	1449374	994	136
0	1450823	995	144
0	1452298	996	118
0	1453830	997	125
0	1455541	998	166
0	1457248	999	158
0	1458565	1000	107
0	1460044	1001	150
0	1461643	1002	154
0	1463161	1003	151
0	1464420	1004	114
0	1465861	1005	116
0	1467537	1006	147
0	1469018	1007	154
0	1470163	1008	114
0	1471609	1009	141
0	1473089	1010	128
0	1474838	1011	166
0	1476303	1012	118
0	1477541	1013	107
0	1479168	1014	150
0	1480696	1015	161
0	1482207	1016	152
0	1483657	1017	153
0	1485235	1018	175
0	1486712	1019	144
0	1488087	1020	133
0	1489624	1021	142
0	1491264	1022	155
0	1492892	1023	145
0	1494356	1024	133
0	1495712	1025	117
0	1497359	1026	166
0	1498991	1027	181
0	1500378	1028	130
0	1501989	1029	154
0	1503484	1030	149
0	1505173	1031	172
0	1506665	1032	135
0	1508264	1033	154
0	1509591	1034	128
0	1510852	1035	104
0	1512364	1036	145
0	1513924	1037	153
0	1515470	1038	149
0	1516687	1039	114
0	1518013	1040	118
0	1519555	1041	153
0	1521142	1042	140
0	1522777	1043	138
0	1524191	1044	127
0	1525575	1045	133
0	1526994	1046	134
0	1528942	1047	193
0	1530078	1048	101
0	1531353	1049	134
0	1532723	1050	140
0	1534145	1051	145
0	1535565	1052	127
0	1536994	1053	130
0	1538636	1054	159
0	1540067	1055	150
0	1541774	1056	154
0	1543088	1057	131
0	1544253	1058	120
0	1545640	1059	138
0	1547118	1060	146
0	1548259	1061	112
0	1549925	1062	157
0	1551323	1063	133
0	1552816	1064	120
0	1554276	1065	121
0	1555624	1066	125
0	1556995	1067	130
0	1558443	1068	137
0	1559608	1069	112
0	1561401	1070	195
0	1562681	1071	117
0	1563765	1072	95
0	1565201	1073	131
0	1566733	1074	169
0	1568111	1075	131
0	1569352	1076	120
0	1570685	1077	128
0	1572425	1078	179
0	1573916	1079	154
0	1575371	1080	125
0	1576559	1081	107
0	1577927	1082	121
0	1578972	1083	88
0	1580464	1084	139
0	1581836	1085	123
0	1583178	1086	119
0	1584704	1087	155
0	1586119	1088	126
0	1587572	1089	130
0	1589096	1090	134
0	1590649	1091	140
0	1592217	1092	173
0	1593510	1093	104
0	1594661	1094	112
0	1595896	1095	112
0	1597488	1096	145
0	1599018	1097	155
0	1600724	1098	155
0	1601723	1099	86
0	1603067	1100	116
0	1604656	1101	154
0	1606061	1102	140
0	1607749	1103	159
0	1609350	1104	160
0	1610748	1105	113
0	1611845	1106	100
0	1613323	1107	137
0	1614864	1108	168
0	1616456	1109	153
0	1617666	1110	110
0	1618912	1111	139
0	1620389	1112	146
0	1621917	1113	137
0	1623306	1114	142
0	1624798	1115	137
0	1626326	1116	145
0	1627786	1117	143
0	1629212	1118	117
0	1630496	1119	125
0	1631999	1120	153
0	1633433	1121	159
0	1634626	1122	122
0	1636109	1123	152
0	1637430	1124	140
0	1638660	1125	109
0	1640110	1126	129
0	1641711	1127	156
0	1643140	1128	146
0	1644892	1129	183
0	1646236	1130	116
0	1647647	1131	130
0	1649333	1132	173
0	1650723	1133	131
0	1652158	1134	132
0	1653792	1135	135
0	1655231	1136	132
0	1656438	1137	96
0	1657805	1138	114
0	1659095	1139	117
0	1660430	1140	131
0	1661986	1141	157
0	1663434	1142	133
0	1665266	1143	179
0	1666901	1144	152
0	1668410	1145	144
0	1669745	1146	126
0	1671196	1147	126
0	1672697	1148	138
0	1674195	1149	145
0	1675927	1150	192
0	1677470	1151	142
0	1679011	1152	148
0	1680373	1153	127
0	1681535	1154	103
0	1682906	1155	134
0	1684404	1156	139
0	1685955	1157	146
0	1687178	1158	98
0	1688814	1159	167
0	1690221	1160	139
0	1691511	1161	123
0	1693015	1162	149
0	1694310	1163	122
0	1696016	1164	169
0	1697572	1165	141
0	1698749	1166	100
0	1700281	1167	155
0	1701560	1168	134
0	1702842	1169	131
0	1704346	1170	148
0	1705916	1171	145
0	1707272	1172	141
0	1708738	1173	139
0	1710459	1174	150
0	1712188	1175	164
0	1713672	1176	117
0	1715199	1177	118
0	1716775	1178	139
0	1718096	1179	114
0	1719528	1180	144
0	1721150	1181	159
0	1722719	1182	164
0	1723933	1183	113
0	1725447	1184	153
0	1726813	1185	129
0	1728312	1186	134
0	1729952	1187	139
0	1731209	1188	120
0	1732652	1189	150
0	1733702	1190	92
0	1735433	1191	174
0	1737084	1192	148
0	1738195	1193	114
0	1739325	1194	109
0	1740535	1195	109
0	1741878	1196	130
0	1743389	1197	136
0	1744727	1198	125
0	1746088	1199	120
0	1747734	1200	180
0	1749126	1201	143
0	1750739	1202	168
0	1752291	1203	145
0	1753821	1204	163
0	1754950	1205	96
0	1756126	1206	97
0	1757756	1207	157
0	1759186	1208	137
0	1760520	1209	107
0	1761704	1210	98
0	1763323	1211	152
0	1764663	1212	121
0	1766149	1213	159
0	1767596	1214	130
0	1768995	1215	136
0	1770599	1216	161
0	1771836	1217	122
0	1773519	1218	168
0	1775152	1219	164
0	1776618	1220	128
0	1777909	1221	110
0	1779630	1222	156
0	1781189	1223	152
0	1782451	1224	121
0	1783676	1225	114
0	1784815	1226	108
0	1785926	1227	90
0	1787213	1228	110
0	1788378	1229	100
0	1789644	1230	120
0	1791122	1231	137
0	1792655	1232	136
0	1794074	1233	148
0	1795443	1234	150
0	1797077	1235	153
0	1798545	1236	155
0	1799935	1237	127
0	1801628	1238	152
0	1803037	1239	144
0	1804331	1240	126
0	1805467	1241	105
0	1807251	1242	169
0	1808445	1243	111
0	1810093	1244	165
0	1811775	1245	159
0	1813425	1246	183
0	1814947	1247	153
0	1816534	1248	156
0	1817739	1249	114
0	1819172	1250	131
0	1820817	1251	152
0	1822028	1252	108
0	1823393	1253	122
0	1824755	1254	129
0	1826507	1255	167
0	1827698	1256	96
0	1829243	1257	136
0	1830834	1258	158
0	1832304	1259	145
0	1833527	1260	115
0	1834714	1261	118
0	1836274	1262	143
0	1837684	1263	135
0	1839301	1264	162
0	1840774	1265	136
0	1842040	1266	123
0	1843306	1267	117
0	1844990	1268	171
0	1846406	1269	131
0	1848137	1270	161
0	1849607	1271	133
0	1850872	1272	112
0	1852305	1273	136
0	1854098	1274	186
0	1855468	1275	109
0	1857122	1276	153
0	1858542	1277	149
0	1860102	1278	139
0	1861991	1279	180
0	1863528	1280	137
0	1864759	1281	126
0	1866184	1282	142
0	1867540	1283	135
0	1868985	1284	136
0	1870400	1285	126
0	1872185	1286	186
0	1873954	1287	148
0	1875590	1288	161
0	1877132	1289	155
0	1878594	1290	146
0	1880154	1291	161
0	1881256	1292	115
0	1882870	1293	181
0	1884496	1294	163
0	1886025	1295	144
0	1887306	1296	122
0	1888552	1297	131
0	1889888	1298	109
0	1891097	1299	96
0	1892449	1300	144
0	1893967	1301	157
0	1895373	1302	141
0	1896897	1303	141
0	1898409	1304	135
0	1899893	1305	155
0	1901403	1306	155
0	1903039	1307	167
0	1904355	1308	111
0	1906015	1309	151
0	1907519	1310	138
0	1909018	1311	150
0	1910382	1312	125
0	1911860	1313	141
0	1913279	1314	144
0	1914630	1315	142
0	1916016	1316	127
0	1917538	1317	155
0	1918892	1318	133
0	1920400	1319	141
0	1922179	1320	165
0	1923615	1321	143
0	1925084	1322	130
0	1926613	1323	148
0	1928168	1324	158
0	1929615	1325	116
0	1931137	1326	151
0	1932601	1327	141
0	1934381	1328	169
0	1935868	1329	148
0	1937615	1330	163
0	1939443	1331	177
0	1940908	1332	138
0	1942014	1333	97
0	1943301	1334	130
0	1944852	1335	150
0	1946179	1336	122
0	1947581	1337	147
0	1948933	1338	129
0	1950137	1339	97
0	1951423	1340	102
0	1952830	1341	138
0	1954491	1342	168
0	1955860	1343	152
0	1957412	1344	159
0	1958781	1345	146
0	1959870	1346	98
0	1961263	1347	132
0	1962733	1348	127
0	1964002	1349	122
0	1965687	1350	151
0	1966967	1351	125
0	1968393	1352	139
0	1969775	1353	125
0	1971095	1354	131
0	1972548	1355	122
0	1974302	1356	173
0	1975561	1357	120
0	1977133	1358	169
0	1978303	1359	117
0	1979755	1360	136
0	1981253	1361	163
0	1982983	1362	183
0	1984378	1363	142
0	1985730	1364	137
0	1987099	1365	124
0	1988492	1366	152
0	1989949	1367	144
0	1991939	1368	207
0	1993588	1369	164
0	1994844	1370	124
0	1996375	1371	176
0	1997899	1372	147
0	1999428	1373	136
0	2000717	1374	132
0	2002397	1375	173
0	2003406	1376	82
0	2004832	1377	141
0	2006328	1378	139
0	2007479	1379	104
0	2008798	1380	113
0	2009919	1381	100
0	2011203	1382	127
0	2012675	1383	143
0	2014134	1384	142
0	2015908	1385	171
0	2017417	1386	146
0	2018913	1387	127
0	2020384	1388	134
0	2021805	1389	134
0	2023326	1390	145
0	2024535	1391	104
0	2026147	1392	157
0	2027819	1393	157
0	2029050	1394	110
0	2030564	1395	141
0	2032067	1396	146
0	2033441	1397	151
0	2035021	1398	151
0	2036790	1399	150
0	2037989	1400	103
0	2039271	1401	113
0	2040540	1402	122
0	2041674	1403	95
0	2043259	1404	148
0	2044717	1405	139
0	2045751	1406	103
0	2047224	1407	138
0	2048597	1408	126
0	2049784	1409	114
0	2051100	1410	124
0	2052481	1411	120
0	2053822	1412	150
0	2055472	1413	165
0	2057002	1414	161
0	2058313	1415	140
0	2059816	1416	144
0	2060763	1417	92
0	2062177	1418	123
0	2063617	1419	139
0	2065287	1420	156
0	2066501	1421	107
0	2067650	1422	128
0	2069149	1423	142
0	2070763	1424	143
0	2072089	1425	119
0	2073375	1426	127
0	2074966	1427	158
0	2076325	1428	122
0	2077800	1429	146
0	2078967	1430	83
0	2080533	1431	157
0	2082016	1432	138
0	2083670	1433	175
0	2085103	1434	128
0	2086265	1435	103
0	2087836	1436	150
0	2089303	1437	146
0	2090752	1438	156
0	2092098	1439	125
0	2093326	1440	104
0	2094797	1441	160
0	2096477	1442	167
0	2098065	1443	163
0	2099829	1444	171
0	2101169	1445	131
0	2102613	1446	155
0	2103890	1447	114
0	2105381	1448	130
0	2106741	1449	137
0	2108324	1450	161
0	2109753	1451	140
0	2111336	1452	158
0	2112976	1453	141
0	2114599	1454	160
0	2116729	1455	231
0	2117936	1456	120
0	2119691	1457	158
0	2121109	1458	131
0	2122452	1459	154
0	2124386	1460	186
0	2125823	1461	144
0	2127256	1462	134
0	2128659	1463	132
0	2130036	1464	124
0	2131482	1465	131
0	2133001	1466	154
0	2134148	1467	106
0	2135450	1468	95
0	2136929	1469	134
0	2138469	1470	156
0	2139973	1471	155
0	2141587	1472	165
0	2142853	1473	113
0	2144374	1474	142
0	2145873	1475	130
0	2147646	1476	176
0	2149117	1477	142
0	2150646	1478	144
0	2152051	1479	152
0	2153507	1480	126
0	2154922	1481	142
0	2156414	1482	153
0	2158186	1483	161
0	2159856	1484	165
0	2161662	1485	167
0	2162895	1486	122
0	2164483	1487	153
0	2165808	1488	122
0	2167425	1489	160
0	2168892	1490	123
0	2170481	1491	166
0	2172007	1492	143
0	2173327	1493	137
0	2174634	1494	118
0	2176404	1495	155
0	2177843	1496	150
0	2179123	1497	117
0	2180471	1498	127
0	2181859	1499	123
0	2183212	1500	123
0	2184695	1501	136
0	2185988	1502	142
0	2187502	1503	151
0	2188716	1504	111
0	2190527	1505	166
0	2192091	1506	137
0	2193713	1507	161
0	2195268	1508	128
0	2196703	1509	156
0	2198267	1510	174
0	2199953	1511	171
0	2201342	1512	124
0	2202863	1513	144
0	2204271	1514	133
0	2205534	1515	114
0	2206713	1516	114
0	2208432	1517	174
0	2209790	1518	115
0	2211119	1519	112
0	2212381	1520	138
0	2213846	1521	136
0	2215241	1522	134
0	2216548	1523	130
0	2218272	1524	161
0	2219990	1525	147
0	2221509	1526	138
0	2222794	1527	116
0	2224177	1528	130
0	2225496	1529	120
0	2226768	1530	112
0	2228332	1531	147
0	2229661	1532	124
0	2231380	1533	168
0	2232710	1534	141
0	2234133	1535	130
0	2235703	1536	179
0	2237192	1537	140
0	2238761	1538	154
0	2240208	1539	146
0	2241692	1540	142
0	2243062	1541	147
0	2244854	1542	165
0	2246217	1543	134
0	2247725	1544	145
0	2249605	1545	177
0	2251080	1546	146
0	2252515	1547	118
0	2253880	1548	146
0	2255149	1549	124
0	2256944	1550	187
0	2258453	1551	136
0	2259685	1552	107
0	2261126	1553	122
0	2262632	1554	127
0	2264290	1555	133
0	2265532	1556	109
0	2266405	1557	68
0	2267468	1558	92
0	2268852	1559	139
0	2270111	1560	133
0	2271860	1561	184
0	2273429	1562	152
0	2274949	1563	141
0	2276284	1564	122
0	2277437	1565	88
0	2278890	1566	152
0	2280315	1567	120
0	2281640	1568	116
0	2282926	1569	127
0	2284173	1570	99
0	2285850	1571	172
0	2287581	1572	168
0	2288868	1573	112
0	2290330	1574	137
0	2291643	1575	134
0	2293221	1576	147
0	2294527	1577	119
0	2295679	1578	103
0	2297189	1579	155
0	2298605	1580	128
0	2299934	1581	116
0	2301193	1582	114
0	2302785	1583	157
0	2304333	1584	129
0	2305763	1585	131
0	2307423	1586	145
0	2308724	1587	104
0	2310391	1588	162
0	2312158	1589	172
0	2313798	1590	160
0	2315416	1591	171
0	2316921	1592	138
0	2318645	1593	161
0	2319893	1594	117
0	2321303	1595	141
0	2322630	1596	124
0	2323678	1597	99
0	2325196	1598	143
0	2326460	1599	119
0	2327842	1600	122
0	2329434	1601	155
0	2330886	1602	157
0	2332421	1603	136
0	2333776	1604	158
0	2335319	1605	158
0	2336828	1606	140
0	2338341	1607	156
0	2339881	1608	149
0	2341375	1609	147
0	2342710	1610	127
0	2344291	1611	158
0	2345957	1612	155
0	2347311	1613	131
0	2348521	1614	119